 DBCSR| CPU Multiplication driver                                           BLAS (U)
 DBCSR| Multrec recursion limit                                              512 (U)
 DBCSR| Multiplication stack size                                           1000 (D)
 DBCSR| Maximum elements for images                                    UNLIMITED (U)
 DBCSR| Multiplicative factor virtual images                                   1 (U)
 DBCSR| Use multiplication densification                                       T (D)
 DBCSR| Multiplication size stacks                                             3 (U)
 DBCSR| Use memory pool for CPU allocation                                     F (U)
 DBCSR| Number of 3D layers                                               SINGLE (U)
 DBCSR| Use MPI memory allocation                                              F (U)
 DBCSR| Use RMA algorithm                                                      F (U)
 DBCSR| Use Communication thread                                               T (U)
 DBCSR| Communication thread load                                             87 (D)
 DBCSR| MPI: My process id                                                     0
 DBCSR| MPI: Number of processes                                              16
 DBCSR| OMP: Current number of threads                                         1
 DBCSR| OMP: Max number of threads                                             1
 DBCSR| Split modifier for TAS multiplication algorithm                  1.0E+00 (U)


  **** **** ******  **  PROGRAM STARTED AT               2025-10-01 13:28:10.236
 ***** ** ***  *** **   PROGRAM STARTED ON                            sebnode120
 **    ****   ******    PROGRAM STARTED BY                                luehrs
 ***** **    ** ** **   PROGRAM PROCESS ID                                975446
  **** **  *******  **  PROGRAM STARTED IN /home/luehrs/PhD/Sodium_batteries/Sod
                                           ium-graphene-functional_groups/Alcoho
                                           l/Hydrogenated_edges_armchair

 CP2K| version string:                                       CP2K version 2023.1
 CP2K| source code revision number:                                  git:b888bd8
 CP2K| cp2kflags: omp libint fftw3 libxc elpa parallel scalapack spglib         
 CP2K| is freely available from                            https://www.cp2k.org/
 CP2K| Program compiled at                          Tue Jan 10 19:52:03 UTC 2023
 CP2K| Program compiled on                                            x86-ubc-01
 CP2K| Program compiled for                                Linux-x86_64-gfortran
 CP2K| Data directory path                                       /usr/share/cp2k
 CP2K| Input file name                                         input.zig-zag.inp

 GLOBAL| Force Environment number                                              1
 GLOBAL| Basis set file name                                      ./BASIS_MOLOPT
 GLOBAL| Potential file name                                    ./GTH_POTENTIALS
 GLOBAL| MM Potential file name                                     MM_POTENTIAL
 GLOBAL| Coordinate file name                               alcohol4_relaxed.xyz
 GLOBAL| Method name                                                        CP2K
 GLOBAL| Project name                         alcohol_sodium4_BSSE_PBE_UKS_FALSE
 GLOBAL| Run type                                                           BSSE
 GLOBAL| FFT library                                                       FFTW3
 GLOBAL| Diagonalization library                                            ELPA
 GLOBAL| DGEMM library                                                      BLAS
 GLOBAL| Minimum number of eigenvectors for ELPA usage                        16
 GLOBAL| Orthonormality check for eigenvectors                          DISABLED
 GLOBAL| Matrix multiplication library                                 ScaLAPACK
 GLOBAL| All-to-all communication in single precision                          F
 GLOBAL| FFTs using library dependent lengths                                  F
 GLOBAL| Grid backend                                                       AUTO
 GLOBAL| Global print level                                                  LOW
 GLOBAL| MPI I/O enabled                                                       T
 GLOBAL| Total number of message passing processes                            16
 GLOBAL| Number of threads for this process                                    1
 GLOBAL| This output is from process                                           0
 GLOBAL| Stack size for threads created by OpenMP (OMP_STACKSIZE)        default
 GLOBAL| CPU model name                 Intel(R) Xeon(R) Gold 6144 CPU @ 3.50GHz

 MEMORY| system memory details [Kb]
 MEMORY|                        rank 0           min           max       average
 MEMORY| MemTotal             65585096      65585096      65585096      65585096
 MEMORY| MemFree              62319980      62319980      62319980      62319980
 MEMORY| Buffers                150808        150808        150808        150808
 MEMORY| Cached                1169280       1169280       1169280       1169280
 MEMORY| Slab                   235748        235748        235748        235748
 MEMORY| SReclaimable            96924         96924         96924         96924
 MEMORY| MemLikelyFree        63736992      63736992      63736992      63736992


 GENERATE|  Preliminary Number of Bonds generated:                             0
 GENERATE|  Achieved consistency in connectivity generation.

 *******************************************************************************
 *******************************************************************************
 **                                                                           **
 **     #####                         ##              ##                      **
 **    ##   ##            ##          ##              ##                      **
 **   ##     ##                       ##            ######                    **
 **   ##     ##  ##   ##  ##   #####  ##  ##   ####   ##    #####    #####    **
 **   ##     ##  ##   ##  ##  ##      ## ##   ##      ##   ##   ##  ##   ##   **
 **   ##  ## ##  ##   ##  ##  ##      ####     ###    ##   ######   ######    **
 **    ##  ###   ##   ##  ##  ##      ## ##      ##   ##   ##       ##        **
 **     #######   #####   ##   #####  ##  ##  ####    ##    #####   ##        **
 **           ##                                                    ##        **
 **                                                                           **
 **                                                ... make the atoms dance   **
 **                                                                           **
 **            Copyright (C) by CP2K developers group (2000-2022)             **
 **                      J. Chem. Phys. 152, 194103 (2020)                    **
 **                                                                           **
 *******************************************************************************


 TOTAL NUMBERS AND MAXIMUM NUMBERS

  Total number of            - Atomic kinds:                                   4
                             - Atoms:                                        106
                             - Shell sets:                                   106
                             - Shells:                                       498
                             - Primitive Cartesian functions:                532
                             - Cartesian basis functions:                   1335
                             - Spherical basis functions:                   1246

  Maximum angular momentum of- Orbital basis functions:                        2
                             - Local part of the GTH pseudopotential:          2
                             - Non-local part of the GTH pseudopotential:      1


 SCF PARAMETERS         Density guess:                                    ATOMIC
                        --------------------------------------------------------
                        max_scf:                                             100
                        max_scf_history:                                       0
                        max_diis:                                              4
                        --------------------------------------------------------
                        eps_scf:                                        3.00E-07
                        eps_scf_history:                                0.00E+00
                        eps_diis:                                       1.00E-01
                        eps_eigval:                                     1.00E-05
                        --------------------------------------------------------
                        level_shift [a.u.]:                             0.000000
                        added MOs                                       100    0
                        --------------------------------------------------------
                        Mixing method:                            BROYDEN_MIXING
                                                charge density mixing in g-space
                        --------------------------------------------------------
                        Smear method:                                FERMI_DIRAC
                        Electronic temperature [K]:                        300.0
                        Electronic temperature [a.u.]:                  9.50E-04
                        Accuracy threshold:                             1.00E-10
                        --------------------------------------------------------
                        Outer loop SCF in use 
                        No variables optimised in outer loop
                        eps_scf                                         1.00E-06
                        max_scf                                               30
                        DIIS optimization
                        DIIS buffer length                                     3
                        step_size                                       5.00E-01

 -------------------------------------------------------------------------------
 -                                                                             -
 -  BSSE CALCULATION         FRAGMENT CONF: 10        FRAGMENT SUBCONF: 10     -
 -                           CHARGE =     0           MULTIPLICITY =     0     -
 -                                                                             -
 -                 ATOM INDEX                              ATOM NAME           -
 -                 ----------                              ---------           -
 -                      1                                   C                  -
 -                      2                                   C                  -
 -                      3                                   C                  -
 -                      4                                   C                  -
 -                      5                                   C                  -
 -                      6                                   C                  -
 -                      7                                   C                  -
 -                      8                                   C                  -
 -                      9                                   C                  -
 -                     10                                   C                  -
 -                     11                                   C                  -
 -                     12                                   C                  -
 -                     13                                   C                  -
 -                     14                                   C                  -
 -                     15                                   C                  -
 -                     16                                   C                  -
 -                     17                                   C                  -
 -                     18                                   C                  -
 -                     19                                   C                  -
 -                     20                                   C                  -
 -                     21                                   C                  -
 -                     22                                   C                  -
 -                     23                                   C                  -
 -                     24                                   C                  -
 -                     25                                   C                  -
 -                     26                                   C                  -
 -                     27                                   C                  -
 -                     28                                   C                  -
 -                     29                                   C                  -
 -                     30                                   C                  -
 -                     31                                   C                  -
 -                     32                                   C                  -
 -                     33                                   C                  -
 -                     34                                   C                  -
 -                     35                                   C                  -
 -                     36                                   C                  -
 -                     37                                   C                  -
 -                     38                                   C                  -
 -                     39                                   C                  -
 -                     40                                   C                  -
 -                     41                                   C                  -
 -                     42                                   C                  -
 -                     43                                   C                  -
 -                     44                                   C                  -
 -                     45                                   C                  -
 -                     46                                   C                  -
 -                     47                                   C                  -
 -                     48                                   C                  -
 -                     49                                   C                  -
 -                     50                                   C                  -
 -                     51                                   C                  -
 -                     52                                   C                  -
 -                     53                                   C                  -
 -                     54                                   C                  -
 -                     55                                   C                  -
 -                     56                                   C                  -
 -                     57                                   C                  -
 -                     58                                   C                  -
 -                     59                                   C                  -
 -                     60                                   C                  -
 -                     61                                   C                  -
 -                     62                                   C                  -
 -                     63                                   C                  -
 -                     64                                   C                  -
 -                     65                                   C                  -
 -                     66                                   C                  -
 -                     67                                   C                  -
 -                     68                                   C                  -
 -                     69                                   C                  -
 -                     70                                   C                  -
 -                     71                                   C                  -
 -                     72                                   C                  -
 -                     73                                   C                  -
 -                     74                                   C                  -
 -                     75                                   C                  -
 -                     76                                   C                  -
 -                     77                                   C                  -
 -                     78                                   C                  -
 -                     79                                   C                  -
 -                     80                                   C                  -
 -                     81                                   C                  -
 -                     82                                   C                  -
 -                     83                                   C                  -
 -                     84                                   C                  -
 -                     85                                   C                  -
 -                     86                                   C                  -
 -                     87                                   C                  -
 -                     88                                   C                  -
 -                     89                                   H                  -
 -                     90                                   H                  -
 -                     91                                   H                  -
 -                     92                                   O                  -
 -                     93                                   H                  -
 -                     94                                   H                  -
 -                     95                                   H                  -
 -                     96                                   H                  -
 -                     97                                   H                  -
 -                     98                                   H                  -
 -                     99                                   H                  -
 -                    100                                   H                  -
 -                    101                                   H                  -
 -                    102                                   H                  -
 -                    103                                   H                  -
 -                    104                                   H                  -
 -                    105                                   Na                 -
 -------------------------------------------------------------------------------

 *******************************************************************************
 *******************************************************************************
 **                                                                           **
 **     #####                         ##              ##                      **
 **    ##   ##            ##          ##              ##                      **
 **   ##     ##                       ##            ######                    **
 **   ##     ##  ##   ##  ##   #####  ##  ##   ####   ##    #####    #####    **
 **   ##     ##  ##   ##  ##  ##      ## ##   ##      ##   ##   ##  ##   ##   **
 **   ##  ## ##  ##   ##  ##  ##      ####     ###    ##   ######   ######    **
 **    ##  ###   ##   ##  ##  ##      ## ##      ##   ##   ##       ##        **
 **     #######   #####   ##   #####  ##  ##  ####    ##    #####   ##        **
 **           ##                                                    ##        **
 **                                                                           **
 **                                                ... make the atoms dance   **
 **                                                                           **
 **            Copyright (C) by CP2K developers group (2000-2022)             **
 **                      J. Chem. Phys. 152, 194103 (2020)                    **
 **                                                                           **
 *******************************************************************************


 TOTAL NUMBERS AND MAXIMUM NUMBERS

  Total number of            - Atomic kinds:                                   4
                             - Atoms:                                        105
                             - Shell sets:                                   105
                             - Shells:                                       495
                             - Primitive Cartesian functions:                527
                             - Cartesian basis functions:                   1330
                             - Spherical basis functions:                   1241

  Maximum angular momentum of- Orbital basis functions:                        2
                             - Local part of the GTH pseudopotential:          2
                             - Non-local part of the GTH pseudopotential:      1


 SCF PARAMETERS         Density guess:                                    ATOMIC
                        --------------------------------------------------------
                        max_scf:                                             100
                        max_scf_history:                                       0
                        max_diis:                                              4
                        --------------------------------------------------------
                        eps_scf:                                        3.00E-07
                        eps_scf_history:                                0.00E+00
                        eps_diis:                                       1.00E-01
                        eps_eigval:                                     1.00E-05
                        --------------------------------------------------------
                        level_shift [a.u.]:                             0.000000
                        added MOs                                       100    0
                        --------------------------------------------------------
                        Mixing method:                            BROYDEN_MIXING
                                                charge density mixing in g-space
                        --------------------------------------------------------
                        Smear method:                                FERMI_DIRAC
                        Electronic temperature [K]:                        300.0
                        Electronic temperature [a.u.]:                  9.50E-04
                        Accuracy threshold:                             1.00E-10
                        --------------------------------------------------------
                        Outer loop SCF in use 
                        No variables optimised in outer loop
                        eps_scf                                         1.00E-06
                        max_scf                                               30
                        DIIS optimization
                        DIIS buffer length                                     3
                        step_size                                       5.00E-01

 Number of electrons:                                                        382
 Number of occupied orbitals:                                                191
 Number of molecular orbitals:                                               291

 Number of orbital functions:                                               1241
 Number of independent orbital functions:                                   1241

 Extrapolation method: initial_guess


 SCF WAVEFUNCTION OPTIMIZATION

  Step     Update method      Time    Convergence         Total energy    Change
  ------------------------------------------------------------------------------
     1 NoMix/Diag. 0.10E+00    1.7     1.00143392      -567.2461805062 -5.67E+02
     2 Broy./Diag. 0.10E+00    2.7     0.05420052      -546.2662252594  2.10E+01
     3 Broy./Diag. 0.10E+00    2.8     0.78471930      -560.2540362384 -1.40E+01
     4 Broy./Diag. 0.10E+00    2.8     0.09155485      -568.7625229507 -8.51E+00
     5 Broy./Diag. 0.10E+00    2.8     0.22000184      -570.5209658797 -1.76E+00
     6 Broy./Diag. 0.10E+00    2.8     0.16823208      -571.6374612500 -1.12E+00
     7 Broy./Diag. 0.10E+00    2.9     0.00798310      -571.6097382146  2.77E-02
     8 Broy./Diag. 0.10E+00    2.9     0.08032171      -571.8564969928 -2.47E-01
     9 Broy./Diag. 0.10E+00    2.9     0.00524511      -572.4569639251 -6.00E-01
    10 Broy./Diag. 0.10E+00    3.0     0.03767224      -572.5520870808 -9.51E-02
    11 Broy./Diag. 0.10E+00    3.0     0.00903279      -572.9066842661 -3.55E-01
    12 Broy./Diag. 0.10E+00    3.0     0.03493052      -572.9733225145 -6.66E-02
    13 Broy./Diag. 0.10E+00    3.0     0.00727468      -573.1376237273 -1.64E-01
    14 Broy./Diag. 0.10E+00    3.0     0.06260819      -573.0635943413  7.40E-02
    15 Broy./Diag. 0.10E+00    3.0     0.03239634      -573.1812932511 -1.18E-01
    16 Broy./Diag. 0.10E+00    3.0     0.04914383      -573.0824722548  9.88E-02
    17 Broy./Diag. 0.10E+00    3.0     0.01888578      -573.1371094257 -5.46E-02
    18 Broy./Diag. 0.10E+00    3.0     0.01925728      -573.0682297353  6.89E-02
    19 Broy./Diag. 0.10E+00    3.0     0.00532529      -573.0817806998 -1.36E-02
    20 Broy./Diag. 0.10E+00    3.0     0.01698857      -573.0958200543 -1.40E-02
    21 Broy./Diag. 0.10E+00    3.0     0.01067337      -573.0631904862  3.26E-02
    22 Broy./Diag. 0.10E+00    3.0     0.00253630      -573.0748781335 -1.17E-02
    23 Broy./Diag. 0.10E+00    3.0     0.00200488      -573.0789884215 -4.11E-03
    24 Broy./Diag. 0.10E+00    3.0     0.01083982      -573.1023599368 -2.34E-02
    25 Broy./Diag. 0.10E+00    3.0     0.00479380      -573.1045214442 -2.16E-03
    26 Broy./Diag. 0.10E+00    3.0     0.00042787      -573.1196103314 -1.51E-02
    27 Broy./Diag. 0.10E+00    3.0     0.00113036      -573.1242453835 -4.64E-03
    28 Broy./Diag. 0.10E+00    3.0     0.00085725      -573.1241915216  5.39E-05
    29 Broy./Diag. 0.10E+00    3.0     0.00201897      -573.1209124575  3.28E-03
    30 Broy./Diag. 0.10E+00    3.0     0.00009131      -573.1170641122  3.85E-03
    31 Broy./Diag. 0.10E+00    3.0     0.00033594      -573.1171878091 -1.24E-04
    32 Broy./Diag. 0.10E+00    3.0     0.00007731      -573.1203880680 -3.20E-03
    33 Broy./Diag. 0.10E+00    3.0     0.00030377      -573.1212814749 -8.93E-04
    34 Broy./Diag. 0.10E+00    3.0     0.00046806      -573.1226254877 -1.34E-03
    35 Broy./Diag. 0.10E+00    3.0     0.00006619      -573.1227001447 -7.47E-05
    36 Broy./Diag. 0.10E+00    3.0     0.00054422      -573.1229077038 -2.08E-04
    37 Broy./Diag. 0.10E+00    3.0     0.00034413      -573.1235127501 -6.05E-04
    38 Broy./Diag. 0.10E+00    3.0     0.00033490      -573.1230850211  4.28E-04
    39 Broy./Diag. 0.10E+00    3.0     0.00032776      -573.1228519565  2.33E-04
    40 Broy./Diag. 0.10E+00    3.0     0.00000942      -573.1234416022 -5.90E-04
    41 Broy./Diag. 0.10E+00    3.0     0.00003257      -573.1235534581 -1.12E-04
    42 Broy./Diag. 0.10E+00    3.0     0.00003156      -573.1231264288  4.27E-04
    43 Broy./Diag. 0.10E+00    3.0     0.00001304      -573.1230450864  8.13E-05
    44 Broy./Diag. 0.10E+00    3.0     0.00001973      -573.1228156386  2.29E-04
    45 Broy./Diag. 0.10E+00    3.0     0.00003438      -573.1227922175  2.34E-05
    46 Broy./Diag. 0.10E+00    3.0     0.00002156      -573.1226506493  1.42E-04
    47 Broy./Diag. 0.10E+00    3.0     0.00000766      -573.1226344614  1.62E-05
    48 Broy./Diag. 0.10E+00    3.0     0.00004906      -573.1227400457 -1.06E-04
    49 Broy./Diag. 0.10E+00    3.0     0.00002888      -573.1228240839 -8.40E-05
    50 Broy./Diag. 0.10E+00    3.0     0.00001429      -573.1229051565 -8.11E-05
    51 Broy./Diag. 0.10E+00    3.0     0.00001941      -573.1229674744 -6.23E-05
    52 Broy./Diag. 0.10E+00    3.0     0.00000714      -573.1229950756 -2.76E-05
    53 Broy./Diag. 0.10E+00    3.0     0.00000800      -573.1229634356  3.16E-05
    54 Broy./Diag. 0.10E+00    3.0     0.00000326      -573.1229282360  3.52E-05
    55 Broy./Diag. 0.10E+00    3.0     0.00000198      -573.1229352824 -7.05E-06
    56 Broy./Diag. 0.10E+00    3.0     0.00000855      -573.1229360439 -7.61E-07
    57 Broy./Diag. 0.10E+00    3.0     0.00000138      -573.1229268620  9.18E-06
    58 Broy./Diag. 0.10E+00    3.0     0.00000624      -573.1229324020 -5.54E-06
    59 Broy./Diag. 0.10E+00    3.0     0.00000169      -573.1229468321 -1.44E-05
    60 Broy./Diag. 0.10E+00    3.0     0.00000633      -573.1229573160 -1.05E-05
    61 Broy./Diag. 0.10E+00    3.0     0.00000547      -573.1229611255 -3.81E-06
    62 Broy./Diag. 0.10E+00    3.0     0.00000165      -573.1229571805  3.94E-06
    63 Broy./Diag. 0.10E+00    3.0     0.00000196      -573.1229600853 -2.90E-06
    64 Broy./Diag. 0.10E+00    3.0     0.00000128      -573.1229609393 -8.54E-07
    65 Broy./Diag. 0.10E+00    3.0     0.00000093      -573.1229544395  6.50E-06
    66 Broy./Diag. 0.10E+00    3.0     0.00000044      -573.1229454837  8.96E-06
    67 Broy./Diag. 0.10E+00    3.0     0.00000022      -573.1229425591  2.92E-06

  *** SCF run converged in    67 steps ***


  Electronic density on regular grids:       -382.0003877749       -0.0003877749
  Core density on regular grids:              381.9999999996       -0.0000000004
  Total charge density on r-space grids:       -0.0003877753
  Total charge density g-space grids:          -0.0003877753

  Overlap energy of the core charge distribution:               0.00002108409087
  Self energy of the core charge distribution:              -1332.77050421180434
  Core Hamiltonian energy:                                    416.50648504071842
  Hartree energy:                                             512.86572182952773
  Exchange-correlation energy:                               -169.61486414735703
  Dispersion energy:                                           -0.10951195000012
  Electronic entropic energy:                                  -0.00029020336620
  Fermi energy:                                                -0.10718336230258

  Total energy:                                              -573.12294255907705

  outer SCF iter =    1 RMS gradient =   0.22E-06 energy =       -573.1229425591
  outer SCF loop converged in   1 iterations or   67 steps


 *** WARNING in qs_loc_utils.F:1500 :: User requested the calculation of ***
 *** the localized wavefunction but the section LOCALIZE was not         ***
 *** specified. Localization will not be performed!                      ***


 -------------------------------------------------------------------------------
 -                                                                             -
 -  BSSE CALCULATION         FRAGMENT CONF: 01        FRAGMENT SUBCONF: 01     -
 -                           CHARGE =     0           MULTIPLICITY =     0     -
 -                                                                             -
 -                 ATOM INDEX                              ATOM NAME           -
 -                 ----------                              ---------           -
 -                    106                                   H                  -
 -------------------------------------------------------------------------------

 *******************************************************************************
 *******************************************************************************
 **                                                                           **
 **     #####                         ##              ##                      **
 **    ##   ##            ##          ##              ##                      **
 **   ##     ##                       ##            ######                    **
 **   ##     ##  ##   ##  ##   #####  ##  ##   ####   ##    #####    #####    **
 **   ##     ##  ##   ##  ##  ##      ## ##   ##      ##   ##   ##  ##   ##   **
 **   ##  ## ##  ##   ##  ##  ##      ####     ###    ##   ######   ######    **
 **    ##  ###   ##   ##  ##  ##      ## ##      ##   ##   ##       ##        **
 **     #######   #####   ##   #####  ##  ##  ####    ##    #####   ##        **
 **           ##                                                    ##        **
 **                                                                           **
 **                                                ... make the atoms dance   **
 **                                                                           **
 **            Copyright (C) by CP2K developers group (2000-2022)             **
 **                      J. Chem. Phys. 152, 194103 (2020)                    **
 **                                                                           **
 *******************************************************************************

 *** WARNING in qs_environment.F:1486 :: More added MOs requested than     ***
 *** available. The full set of unoccupied MOs will be used. Use           ***
 *** 'ADDED_MOS -1' to always use all available MOs and to get rid of this ***
 *** warning.                                                              ***



 TOTAL NUMBERS AND MAXIMUM NUMBERS

  Total number of            - Atomic kinds:                                   1
                             - Atoms:                                          1
                             - Shell sets:                                     1
                             - Shells:                                         3
                             - Primitive Cartesian functions:                  5
                             - Cartesian basis functions:                      5
                             - Spherical basis functions:                      5

  Maximum angular momentum of- Orbital basis functions:                        1
                             - Local part of the GTH pseudopotential:          2


 SCF PARAMETERS         Density guess:                                    ATOMIC
                        --------------------------------------------------------
                        max_scf:                                             100
                        max_scf_history:                                       0
                        max_diis:                                              4
                        --------------------------------------------------------
                        eps_scf:                                        3.00E-07
                        eps_scf_history:                                0.00E+00
                        eps_diis:                                       1.00E-01
                        eps_eigval:                                     1.00E-05
                        --------------------------------------------------------
                        level_shift [a.u.]:                             0.000000
                        added MOs                                         4    0
                        --------------------------------------------------------
                        Mixing method:                            BROYDEN_MIXING
                                                charge density mixing in g-space
                        --------------------------------------------------------
                        Smear method:                                FERMI_DIRAC
                        Electronic temperature [K]:                        300.0
                        Electronic temperature [a.u.]:                  9.50E-04
                        Accuracy threshold:                             1.00E-10
                        --------------------------------------------------------
                        Outer loop SCF in use 
                        No variables optimised in outer loop
                        eps_scf                                         1.00E-06
                        max_scf                                               30
                        DIIS optimization
                        DIIS buffer length                                     3
                        step_size                                       5.00E-01

 Number of electrons:                                                          1
 Number of occupied orbitals:                                                  1
 Number of molecular orbitals:                                                 5

 Number of orbital functions:                                                  5
 Number of independent orbital functions:                                      5

 Extrapolation method: initial_guess


 SCF WAVEFUNCTION OPTIMIZATION

  Step     Update method      Time    Convergence         Total energy    Change
  ------------------------------------------------------------------------------

 *** WARNING in qs_mo_occupation.F:581 :: Fermi-Dirac smearing includes ***
 *** the first MO                                                       ***

     1 NoMix/Diag. 0.10E+00    0.6     0.00491328        -0.4071239979 -4.07E-01

 *** WARNING in qs_mo_occupation.F:581 :: Fermi-Dirac smearing includes ***
 *** the first MO                                                       ***

     2 Broy./Diag. 0.10E+00    1.1     0.00001842        -0.4063592368  7.65E-04

 *** WARNING in qs_mo_occupation.F:581 :: Fermi-Dirac smearing includes ***
 *** the first MO                                                       ***

     3 Broy./Diag. 0.10E+00    1.2     0.00019402        -0.4087844048 -2.43E-03

 *** WARNING in qs_mo_occupation.F:581 :: Fermi-Dirac smearing includes ***
 *** the first MO                                                       ***

     4 Broy./Diag. 0.10E+00    1.2     0.00000194        -0.4087109736  7.34E-05

 *** WARNING in qs_mo_occupation.F:581 :: Fermi-Dirac smearing includes ***
 *** the first MO                                                       ***

     5 Broy./Diag. 0.10E+00    1.2     0.00000307        -0.4087035190  7.45E-06

 *** WARNING in qs_mo_occupation.F:581 :: Fermi-Dirac smearing includes ***
 *** the first MO                                                       ***

     6 Broy./Diag. 0.10E+00    1.3     0.00000036        -0.4086949579  8.56E-06

 *** WARNING in qs_mo_occupation.F:581 :: Fermi-Dirac smearing includes ***
 *** the first MO                                                       ***

     7 Broy./Diag. 0.10E+00    1.3     0.00000586        -0.4085939895  1.01E-04

 *** WARNING in qs_mo_occupation.F:581 :: Fermi-Dirac smearing includes ***
 *** the first MO                                                       ***

     8 Broy./Diag. 0.10E+00    1.4     0.00000086        -0.4085780630  1.59E-05

 *** WARNING in qs_mo_occupation.F:581 :: Fermi-Dirac smearing includes ***
 *** the first MO                                                       ***

     9 Broy./Diag. 0.10E+00    1.4     0.00000228        -0.4085531777  2.49E-05

 *** WARNING in qs_mo_occupation.F:581 :: Fermi-Dirac smearing includes ***
 *** the first MO                                                       ***

    10 Broy./Diag. 0.10E+00    1.5     0.00000078        -0.4085430150  1.02E-05

 *** WARNING in qs_mo_occupation.F:581 :: Fermi-Dirac smearing includes ***
 *** the first MO                                                       ***

    11 Broy./Diag. 0.10E+00    1.5     0.00000021        -0.4085403063  2.71E-06

  *** SCF run converged in    11 steps ***


  Electronic density on regular grids:         -0.9999999997        0.0000000003
  Core density on regular grids:                1.0000000000       -0.0000000000
  Total charge density on r-space grids:        0.0000000003
  Total charge density g-space grids:           0.0000000003

  Overlap energy of the core charge distribution:               0.00000000000000
  Self energy of the core charge distribution:                 -1.41047395886939
  Core Hamiltonian energy:                                      0.68881347370527
  Hartree energy:                                               0.64961044101942
  Exchange-correlation energy:                                 -0.33517321151025
  Dispersion energy:                                           -0.00000000913411
  Electronic entropic energy:                                  -0.00131704147593
  Fermi energy:                                                -0.10528750335125

  Total energy:                                                -0.40854030626499

  outer SCF iter =    1 RMS gradient =   0.21E-06 energy =         -0.4085403063
  outer SCF loop converged in   1 iterations or   11 steps


 *** WARNING in qs_loc_utils.F:1500 :: User requested the calculation of ***
 *** the localized wavefunction but the section LOCALIZE was not         ***
 *** specified. Localization will not be performed!                      ***


 -------------------------------------------------------------------------------
 -                                                                             -
 -  BSSE CALCULATION         FRAGMENT CONF: 11        FRAGMENT SUBCONF: 10     -
 -                           CHARGE =     0           MULTIPLICITY =     0     -
 -                                                                             -
 -                 ATOM INDEX                              ATOM NAME           -
 -                 ----------                              ---------           -
 -                      1                                   C                  -
 -                      2                                   C                  -
 -                      3                                   C                  -
 -                      4                                   C                  -
 -                      5                                   C                  -
 -                      6                                   C                  -
 -                      7                                   C                  -
 -                      8                                   C                  -
 -                      9                                   C                  -
 -                     10                                   C                  -
 -                     11                                   C                  -
 -                     12                                   C                  -
 -                     13                                   C                  -
 -                     14                                   C                  -
 -                     15                                   C                  -
 -                     16                                   C                  -
 -                     17                                   C                  -
 -                     18                                   C                  -
 -                     19                                   C                  -
 -                     20                                   C                  -
 -                     21                                   C                  -
 -                     22                                   C                  -
 -                     23                                   C                  -
 -                     24                                   C                  -
 -                     25                                   C                  -
 -                     26                                   C                  -
 -                     27                                   C                  -
 -                     28                                   C                  -
 -                     29                                   C                  -
 -                     30                                   C                  -
 -                     31                                   C                  -
 -                     32                                   C                  -
 -                     33                                   C                  -
 -                     34                                   C                  -
 -                     35                                   C                  -
 -                     36                                   C                  -
 -                     37                                   C                  -
 -                     38                                   C                  -
 -                     39                                   C                  -
 -                     40                                   C                  -
 -                     41                                   C                  -
 -                     42                                   C                  -
 -                     43                                   C                  -
 -                     44                                   C                  -
 -                     45                                   C                  -
 -                     46                                   C                  -
 -                     47                                   C                  -
 -                     48                                   C                  -
 -                     49                                   C                  -
 -                     50                                   C                  -
 -                     51                                   C                  -
 -                     52                                   C                  -
 -                     53                                   C                  -
 -                     54                                   C                  -
 -                     55                                   C                  -
 -                     56                                   C                  -
 -                     57                                   C                  -
 -                     58                                   C                  -
 -                     59                                   C                  -
 -                     60                                   C                  -
 -                     61                                   C                  -
 -                     62                                   C                  -
 -                     63                                   C                  -
 -                     64                                   C                  -
 -                     65                                   C                  -
 -                     66                                   C                  -
 -                     67                                   C                  -
 -                     68                                   C                  -
 -                     69                                   C                  -
 -                     70                                   C                  -
 -                     71                                   C                  -
 -                     72                                   C                  -
 -                     73                                   C                  -
 -                     74                                   C                  -
 -                     75                                   C                  -
 -                     76                                   C                  -
 -                     77                                   C                  -
 -                     78                                   C                  -
 -                     79                                   C                  -
 -                     80                                   C                  -
 -                     81                                   C                  -
 -                     82                                   C                  -
 -                     83                                   C                  -
 -                     84                                   C                  -
 -                     85                                   C                  -
 -                     86                                   C                  -
 -                     87                                   C                  -
 -                     88                                   C                  -
 -                     89                                   H                  -
 -                     90                                   H                  -
 -                     91                                   H                  -
 -                     92                                   O                  -
 -                     93                                   H                  -
 -                     94                                   H                  -
 -                     95                                   H                  -
 -                     96                                   H                  -
 -                     97                                   H                  -
 -                     98                                   H                  -
 -                     99                                   H                  -
 -                    100                                   H                  -
 -                    101                                   H                  -
 -                    102                                   H                  -
 -                    103                                   H                  -
 -                    104                                   H                  -
 -                    105                                   Na                 -
 -                    106                                   H_ghost            -
 -------------------------------------------------------------------------------

 *******************************************************************************
 *******************************************************************************
 **                                                                           **
 **     #####                         ##              ##                      **
 **    ##   ##            ##          ##              ##                      **
 **   ##     ##                       ##            ######                    **
 **   ##     ##  ##   ##  ##   #####  ##  ##   ####   ##    #####    #####    **
 **   ##     ##  ##   ##  ##  ##      ## ##   ##      ##   ##   ##  ##   ##   **
 **   ##  ## ##  ##   ##  ##  ##      ####     ###    ##   ######   ######    **
 **    ##  ###   ##   ##  ##  ##      ## ##      ##   ##   ##       ##        **
 **     #######   #####   ##   #####  ##  ##  ####    ##    #####   ##        **
 **           ##                                                    ##        **
 **                                                                           **
 **                                                ... make the atoms dance   **
 **                                                                           **
 **            Copyright (C) by CP2K developers group (2000-2022)             **
 **                      J. Chem. Phys. 152, 194103 (2020)                    **
 **                                                                           **
 *******************************************************************************


 TOTAL NUMBERS AND MAXIMUM NUMBERS

  Total number of            - Atomic kinds:                                   5
                             - Atoms:                                        106
                             - Shell sets:                                   106
                             - Shells:                                       498
                             - Primitive Cartesian functions:                532
                             - Cartesian basis functions:                   1335
                             - Spherical basis functions:                   1246

  Maximum angular momentum of- Orbital basis functions:                        2
                             - Local part of the GTH pseudopotential:          2
                             - Non-local part of the GTH pseudopotential:      1


 SCF PARAMETERS         Density guess:                                    ATOMIC
                        --------------------------------------------------------
                        max_scf:                                             100
                        max_scf_history:                                       0
                        max_diis:                                              4
                        --------------------------------------------------------
                        eps_scf:                                        3.00E-07
                        eps_scf_history:                                0.00E+00
                        eps_diis:                                       1.00E-01
                        eps_eigval:                                     1.00E-05
                        --------------------------------------------------------
                        level_shift [a.u.]:                             0.000000
                        added MOs                                       100    0
                        --------------------------------------------------------
                        Mixing method:                            BROYDEN_MIXING
                                                charge density mixing in g-space
                        --------------------------------------------------------
                        Smear method:                                FERMI_DIRAC
                        Electronic temperature [K]:                        300.0
                        Electronic temperature [a.u.]:                  9.50E-04
                        Accuracy threshold:                             1.00E-10
                        --------------------------------------------------------
                        Outer loop SCF in use 
                        No variables optimised in outer loop
                        eps_scf                                         1.00E-06
                        max_scf                                               30
                        DIIS optimization
                        DIIS buffer length                                     3
                        step_size                                       5.00E-01

 Number of electrons:                                                        382
 Number of occupied orbitals:                                                191
 Number of molecular orbitals:                                               291

 Number of orbital functions:                                               1246
 Number of independent orbital functions:                                   1246

 Extrapolation method: initial_guess


 SCF WAVEFUNCTION OPTIMIZATION

  Step     Update method      Time    Convergence         Total energy    Change
  ------------------------------------------------------------------------------
     1 NoMix/Diag. 0.10E+00    1.7     1.00144491      -567.2461805062 -5.67E+02
     2 Broy./Diag. 0.10E+00    2.7     0.05421358      -546.2651042814  2.10E+01
     3 Broy./Diag. 0.10E+00    2.7     0.78372722      -560.2467570233 -1.40E+01
     4 Broy./Diag. 0.10E+00    2.8     0.09209853      -568.7564488473 -8.51E+00
     5 Broy./Diag. 0.10E+00    2.8     0.21991333      -570.5209251810 -1.76E+00
     6 Broy./Diag. 0.10E+00    2.8     0.16738580      -571.6394892824 -1.12E+00
     7 Broy./Diag. 0.10E+00    2.9     0.00810197      -571.6108985390  2.86E-02
     8 Broy./Diag. 0.10E+00    2.9     0.08007673      -571.8586887680 -2.48E-01
     9 Broy./Diag. 0.10E+00    3.0     0.00509573      -572.4584768479 -6.00E-01
    10 Broy./Diag. 0.10E+00    3.0     0.03650009      -572.5543118134 -9.58E-02
    11 Broy./Diag. 0.10E+00    3.0     0.00879389      -572.9080555178 -3.54E-01
    12 Broy./Diag. 0.10E+00    3.0     0.03371125      -572.9756424043 -6.76E-02
    13 Broy./Diag. 0.10E+00    3.0     0.00696767      -573.1393407871 -1.64E-01
    14 Broy./Diag. 0.10E+00    3.0     0.06280227      -573.0678108645  7.15E-02
    15 Broy./Diag. 0.10E+00    3.0     0.03358273      -573.1843908692 -1.17E-01
    16 Broy./Diag. 0.10E+00    3.0     0.04768346      -573.0819794689  1.02E-01
    17 Broy./Diag. 0.10E+00    3.0     0.01534375      -573.1262013133 -4.42E-02
    18 Broy./Diag. 0.10E+00    3.0     0.01826122      -573.0602717343  6.59E-02
    19 Broy./Diag. 0.10E+00    3.0     0.00326621      -573.0770927533 -1.68E-02
    20 Broy./Diag. 0.10E+00    3.0     0.01407725      -573.0962082597 -1.91E-02
    21 Broy./Diag. 0.10E+00    3.0     0.01041210      -573.0733117018  2.29E-02
    22 Broy./Diag. 0.10E+00    3.0     0.00146451      -573.0858371334 -1.25E-02
    23 Broy./Diag. 0.10E+00    3.0     0.00201784      -573.0879757123 -2.14E-03
    24 Broy./Diag. 0.10E+00    3.0     0.01197939      -573.1089626013 -2.10E-02
    25 Broy./Diag. 0.10E+00    3.0     0.00551411      -573.1054639534  3.50E-03
    26 Broy./Diag. 0.10E+00    3.0     0.00081294      -573.1197281391 -1.43E-02
    27 Broy./Diag. 0.10E+00    3.0     0.00112239      -573.1247381795 -5.01E-03
    28 Broy./Diag. 0.10E+00    3.0     0.00066715      -573.1237931900  9.45E-04
    29 Broy./Diag. 0.10E+00    3.0     0.00190666      -573.1202889408  3.50E-03
    30 Broy./Diag. 0.10E+00    3.0     0.00011296      -573.1163573843  3.93E-03
    31 Broy./Diag. 0.10E+00    3.0     0.00024208      -573.1164518789 -9.45E-05
    32 Broy./Diag. 0.10E+00    3.0     0.00075922      -573.1186242333 -2.17E-03
    33 Broy./Diag. 0.10E+00    3.0     0.00013674      -573.1214093855 -2.79E-03
    34 Broy./Diag. 0.10E+00    3.0     0.00065975      -573.1233456837 -1.94E-03
    35 Broy./Diag. 0.10E+00    3.0     0.00021331      -573.1237617312 -4.16E-04
    36 Broy./Diag. 0.10E+00    3.0     0.00007368      -573.1248269946 -1.07E-03
    37 Broy./Diag. 0.10E+00    3.0     0.00031045      -573.1251573982 -3.30E-04
    38 Broy./Diag. 0.10E+00    3.0     0.00006567      -573.1245336415  6.24E-04
    39 Broy./Diag. 0.10E+00    3.0     0.00018461      -573.1242656647  2.68E-04
    40 Broy./Diag. 0.10E+00    3.0     0.00010583      -573.1241161486  1.50E-04
    41 Broy./Diag. 0.10E+00    3.0     0.00016522      -573.1238688278  2.47E-04
    42 Broy./Diag. 0.10E+00    3.0     0.00000580      -573.1236219517  2.47E-04
    43 Broy./Diag. 0.10E+00    3.0     0.00012039      -573.1238113797 -1.89E-04
    44 Broy./Diag. 0.10E+00    3.0     0.00002825      -573.1237583645  5.30E-05
    45 Broy./Diag. 0.10E+00    3.0     0.00004293      -573.1237088457  4.95E-05
    46 Broy./Diag. 0.10E+00    3.0     0.00001362      -573.1236427636  6.61E-05
    47 Broy./Diag. 0.10E+00    3.0     0.00005028      -573.1236032592  3.95E-05
    48 Broy./Diag. 0.10E+00    3.0     0.00002229      -573.1236551647 -5.19E-05
    49 Broy./Diag. 0.10E+00    3.0     0.00000827      -573.1235721202  8.30E-05
    50 Broy./Diag. 0.10E+00    3.0     0.00002291      -573.1235512611  2.09E-05
    51 Broy./Diag. 0.10E+00    3.0     0.00001618      -573.1235361261  1.51E-05
    52 Broy./Diag. 0.10E+00    3.0     0.00002926      -573.1235343607  1.77E-06
    53 Broy./Diag. 0.10E+00    3.0     0.00000520      -573.1235911156 -5.68E-05
    54 Broy./Diag. 0.10E+00    3.0     0.00001027      -573.1235890468  2.07E-06
    55 Broy./Diag. 0.10E+00    3.0     0.00000242      -573.1235755985  1.34E-05
    56 Broy./Diag. 0.10E+00    3.0     0.00000302      -573.1235684848  7.11E-06
    57 Broy./Diag. 0.10E+00    3.0     0.00000948      -573.1235670714  1.41E-06
    58 Broy./Diag. 0.10E+00    3.0     0.00000784      -573.1235706311 -3.56E-06
    59 Broy./Diag. 0.10E+00    3.0     0.00000284      -573.1235813868 -1.08E-05
    60 Broy./Diag. 0.10E+00    3.0     0.00000218      -573.1235969231 -1.55E-05
    61 Broy./Diag. 0.10E+00    3.0     0.00000071      -573.1236002879 -3.36E-06
    62 Broy./Diag. 0.10E+00    3.0     0.00000233      -573.1236047896 -4.50E-06
    63 Broy./Diag. 0.10E+00    3.0     0.00000048      -573.1236037366  1.05E-06
    64 Broy./Diag. 0.10E+00    3.0     0.00000171      -573.1236036612  7.54E-08
    65 Broy./Diag. 0.10E+00    3.0     0.00000050      -573.1236019763  1.68E-06
    66 Broy./Diag. 0.10E+00    3.0     0.00000046      -573.1235984913  3.48E-06
    67 Broy./Diag. 0.10E+00    3.0     0.00000038      -573.1235943938  4.10E-06
    68 Broy./Diag. 0.10E+00    3.0     0.00000037      -573.1235909637  3.43E-06
    69 Broy./Diag. 0.10E+00    3.0     0.00000036      -573.1235883708  2.59E-06
    70 Broy./Diag. 0.10E+00    3.0     0.00000025      -573.1235865091  1.86E-06

  *** SCF run converged in    70 steps ***


  Electronic density on regular grids:       -382.0003877784       -0.0003877784
  Core density on regular grids:              381.9999999996       -0.0000000004
  Total charge density on r-space grids:       -0.0003877788
  Total charge density g-space grids:          -0.0003877788

  Overlap energy of the core charge distribution:               0.00002108409087
  Self energy of the core charge distribution:              -1332.77050421180434
  Core Hamiltonian energy:                                    416.50892870941675
  Hartree energy:                                             512.86152487332720
  Exchange-correlation energy:                               -169.61375992952196
  Dispersion energy:                                           -0.10951195000012
  Electronic entropic energy:                                  -0.00028508332462
  Fermi energy:                                                -0.10721160619920

  Total energy:                                              -573.12358650909675

  outer SCF iter =    1 RMS gradient =   0.25E-06 energy =       -573.1235865091
  outer SCF loop converged in   1 iterations or   70 steps


 *** WARNING in qs_loc_utils.F:1500 :: User requested the calculation of ***
 *** the localized wavefunction but the section LOCALIZE was not         ***
 *** specified. Localization will not be performed!                      ***


 -------------------------------------------------------------------------------
 -                                                                             -
 -  BSSE CALCULATION         FRAGMENT CONF: 11        FRAGMENT SUBCONF: 01     -
 -                           CHARGE =     0           MULTIPLICITY =     0     -
 -                                                                             -
 -                 ATOM INDEX                              ATOM NAME           -
 -                 ----------                              ---------           -
 -                      1                                   C_ghost            -
 -                      2                                   C_ghost            -
 -                      3                                   C_ghost            -
 -                      4                                   C_ghost            -
 -                      5                                   C_ghost            -
 -                      6                                   C_ghost            -
 -                      7                                   C_ghost            -
 -                      8                                   C_ghost            -
 -                      9                                   C_ghost            -
 -                     10                                   C_ghost            -
 -                     11                                   C_ghost            -
 -                     12                                   C_ghost            -
 -                     13                                   C_ghost            -
 -                     14                                   C_ghost            -
 -                     15                                   C_ghost            -
 -                     16                                   C_ghost            -
 -                     17                                   C_ghost            -
 -                     18                                   C_ghost            -
 -                     19                                   C_ghost            -
 -                     20                                   C_ghost            -
 -                     21                                   C_ghost            -
 -                     22                                   C_ghost            -
 -                     23                                   C_ghost            -
 -                     24                                   C_ghost            -
 -                     25                                   C_ghost            -
 -                     26                                   C_ghost            -
 -                     27                                   C_ghost            -
 -                     28                                   C_ghost            -
 -                     29                                   C_ghost            -
 -                     30                                   C_ghost            -
 -                     31                                   C_ghost            -
 -                     32                                   C_ghost            -
 -                     33                                   C_ghost            -
 -                     34                                   C_ghost            -
 -                     35                                   C_ghost            -
 -                     36                                   C_ghost            -
 -                     37                                   C_ghost            -
 -                     38                                   C_ghost            -
 -                     39                                   C_ghost            -
 -                     40                                   C_ghost            -
 -                     41                                   C_ghost            -
 -                     42                                   C_ghost            -
 -                     43                                   C_ghost            -
 -                     44                                   C_ghost            -
 -                     45                                   C_ghost            -
 -                     46                                   C_ghost            -
 -                     47                                   C_ghost            -
 -                     48                                   C_ghost            -
 -                     49                                   C_ghost            -
 -                     50                                   C_ghost            -
 -                     51                                   C_ghost            -
 -                     52                                   C_ghost            -
 -                     53                                   C_ghost            -
 -                     54                                   C_ghost            -
 -                     55                                   C_ghost            -
 -                     56                                   C_ghost            -
 -                     57                                   C_ghost            -
 -                     58                                   C_ghost            -
 -                     59                                   C_ghost            -
 -                     60                                   C_ghost            -
 -                     61                                   C_ghost            -
 -                     62                                   C_ghost            -
 -                     63                                   C_ghost            -
 -                     64                                   C_ghost            -
 -                     65                                   C_ghost            -
 -                     66                                   C_ghost            -
 -                     67                                   C_ghost            -
 -                     68                                   C_ghost            -
 -                     69                                   C_ghost            -
 -                     70                                   C_ghost            -
 -                     71                                   C_ghost            -
 -                     72                                   C_ghost            -
 -                     73                                   C_ghost            -
 -                     74                                   C_ghost            -
 -                     75                                   C_ghost            -
 -                     76                                   C_ghost            -
 -                     77                                   C_ghost            -
 -                     78                                   C_ghost            -
 -                     79                                   C_ghost            -
 -                     80                                   C_ghost            -
 -                     81                                   C_ghost            -
 -                     82                                   C_ghost            -
 -                     83                                   C_ghost            -
 -                     84                                   C_ghost            -
 -                     85                                   C_ghost            -
 -                     86                                   C_ghost            -
 -                     87                                   C_ghost            -
 -                     88                                   C_ghost            -
 -                     89                                   H_ghost            -
 -                     90                                   H_ghost            -
 -                     91                                   H_ghost            -
 -                     92                                   O_ghost            -
 -                     93                                   H_ghost            -
 -                     94                                   H_ghost            -
 -                     95                                   H_ghost            -
 -                     96                                   H_ghost            -
 -                     97                                   H_ghost            -
 -                     98                                   H_ghost            -
 -                     99                                   H_ghost            -
 -                    100                                   H_ghost            -
 -                    101                                   H_ghost            -
 -                    102                                   H_ghost            -
 -                    103                                   H_ghost            -
 -                    104                                   H_ghost            -
 -                    105                                   Na_ghost           -
 -                    106                                   H                  -
 -------------------------------------------------------------------------------

 *******************************************************************************
 *******************************************************************************
 **                                                                           **
 **     #####                         ##              ##                      **
 **    ##   ##            ##          ##              ##                      **
 **   ##     ##                       ##            ######                    **
 **   ##     ##  ##   ##  ##   #####  ##  ##   ####   ##    #####    #####    **
 **   ##     ##  ##   ##  ##  ##      ## ##   ##      ##   ##   ##  ##   ##   **
 **   ##  ## ##  ##   ##  ##  ##      ####     ###    ##   ######   ######    **
 **    ##  ###   ##   ##  ##  ##      ## ##      ##   ##   ##       ##        **
 **     #######   #####   ##   #####  ##  ##  ####    ##    #####   ##        **
 **           ##                                                    ##        **
 **                                                                           **
 **                                                ... make the atoms dance   **
 **                                                                           **
 **            Copyright (C) by CP2K developers group (2000-2022)             **
 **                      J. Chem. Phys. 152, 194103 (2020)                    **
 **                                                                           **
 *******************************************************************************


 TOTAL NUMBERS AND MAXIMUM NUMBERS

  Total number of            - Atomic kinds:                                   5
                             - Atoms:                                        106
                             - Shell sets:                                   106
                             - Shells:                                       498
                             - Primitive Cartesian functions:                532
                             - Cartesian basis functions:                   1335
                             - Spherical basis functions:                   1246

  Maximum angular momentum of- Orbital basis functions:                        2
                             - Local part of the GTH pseudopotential:          2


 SCF PARAMETERS         Density guess:                                    ATOMIC
                        --------------------------------------------------------
                        max_scf:                                             100
                        max_scf_history:                                       0
                        max_diis:                                              4
                        --------------------------------------------------------
                        eps_scf:                                        3.00E-07
                        eps_scf_history:                                0.00E+00
                        eps_diis:                                       1.00E-01
                        eps_eigval:                                     1.00E-05
                        --------------------------------------------------------
                        level_shift [a.u.]:                             0.000000
                        added MOs                                       100    0
                        --------------------------------------------------------
                        Mixing method:                            BROYDEN_MIXING
                                                charge density mixing in g-space
                        --------------------------------------------------------
                        Smear method:                                FERMI_DIRAC
                        Electronic temperature [K]:                        300.0
                        Electronic temperature [a.u.]:                  9.50E-04
                        Accuracy threshold:                             1.00E-10
                        --------------------------------------------------------
                        Outer loop SCF in use 
                        No variables optimised in outer loop
                        eps_scf                                         1.00E-06
                        max_scf                                               30
                        DIIS optimization
                        DIIS buffer length                                     3
                        step_size                                       5.00E-01

 Number of electrons:                                                          1
 Number of occupied orbitals:                                                  1
 Number of molecular orbitals:                                               101

 Number of orbital functions:                                               1246
 Number of independent orbital functions:                                   1246

 Extrapolation method: initial_guess


 SCF WAVEFUNCTION OPTIMIZATION

  Step     Update method      Time    Convergence         Total energy    Change
  ------------------------------------------------------------------------------

 *** WARNING in qs_mo_occupation.F:581 :: Fermi-Dirac smearing includes ***
 *** the first MO                                                       ***

     1 NoMix/Diag. 0.10E+00    1.5     0.68060697        -0.4071239979 -4.07E-01

 *** WARNING in qs_mo_occupation.F:581 :: Fermi-Dirac smearing includes ***
 *** the first MO                                                       ***

     2 Broy./Diag. 0.10E+00    2.6     0.00528713        -0.6832545773 -2.76E-01

 *** WARNING in qs_mo_occupation.F:581 :: Fermi-Dirac smearing includes ***
 *** the first MO                                                       ***

     3 Broy./Diag. 0.10E+00    2.7     0.03831030        -0.5232562376  1.60E-01

 *** WARNING in qs_mo_occupation.F:581 :: Fermi-Dirac smearing includes ***
 *** the first MO                                                       ***

     4 Broy./Diag. 0.10E+00    2.7     0.00166989        -0.4883861264  3.49E-02

 *** WARNING in qs_mo_occupation.F:581 :: Fermi-Dirac smearing includes ***
 *** the first MO                                                       ***

     5 Broy./Diag. 0.10E+00    2.7     0.00790216        -0.4684700247  1.99E-02

 *** WARNING in qs_mo_occupation.F:581 :: Fermi-Dirac smearing includes ***
 *** the first MO                                                       ***

     6 Broy./Diag. 0.10E+00    2.8     0.00375465        -0.4685604844 -9.05E-05

 *** WARNING in qs_mo_occupation.F:581 :: Fermi-Dirac smearing includes ***
 *** the first MO                                                       ***

     7 Broy./Diag. 0.10E+00    2.8     0.00023098        -0.4694901594 -9.30E-04

 *** WARNING in qs_mo_occupation.F:581 :: Fermi-Dirac smearing includes ***
 *** the first MO                                                       ***

     8 Broy./Diag. 0.10E+00    2.8     0.00586185        -0.4624928161  7.00E-03

 *** WARNING in qs_mo_occupation.F:581 :: Fermi-Dirac smearing includes ***
 *** the first MO                                                       ***

     9 Broy./Diag. 0.10E+00    2.9     0.00078022        -0.4596569960  2.84E-03

[...]

 -------------------------------------------------------------------------------
 -                                                                             -
 -                                DBCSR STATISTICS                             -
 -                                                                             -
 -------------------------------------------------------------------------------
 COUNTER                                    TOTAL       BLAS       SMM       ACC
 flops     9 x     9 x     5                30780     100.0%      0.0%      0.0%
 flops     9 x     5 x     5               102600     100.0%      0.0%      0.0%
 flops     5 x     9 x     5               136800     100.0%      0.0%      0.0%
 flops     9 x     9 x    32               590976     100.0%      0.0%      0.0%
 flops     9 x     9 x    68               660960     100.0%      0.0%      0.0%
 flops     5 x     5 x     5               686750     100.0%      0.0%      0.0%
 flops     9 x     9 x    67              1486998     100.0%      0.0%      0.0%
 flops    13 x     9 x     5              1600560     100.0%      0.0%      0.0%
 flops     9 x    13 x     5              1733940     100.0%      0.0%      0.0%
 flops     9 x     5 x    32              1969920     100.0%      0.0%      0.0%
 flops     9 x     5 x    68              2203200     100.0%      0.0%      0.0%
 flops     5 x     9 x    32              2626560     100.0%      0.0%      0.0%
 flops     5 x     9 x    68              2937600     100.0%      0.0%      0.0%
 flops     9 x     9 x    96              3063744     100.0%      0.0%      0.0%
 flops     9 x     9 x    64              4084992     100.0%      0.0%      0.0%
 flops     9 x     5 x    67              4956660     100.0%      0.0%      0.0%
 flops     5 x     9 x    67              6204870     100.0%      0.0%      0.0%
 flops     9 x     5 x    96             10212480     100.0%      0.0%      0.0%
 flops     5 x     9 x    96             13037760     100.0%      0.0%      0.0%
 flops     5 x     5 x    32             13132800     100.0%      0.0%      0.0%
 flops     9 x     5 x    64             13616640     100.0%      0.0%      0.0%
 flops     5 x    13 x     5             14671800     100.0%      0.0%      0.0%
 flops     5 x     5 x    68             14688000     100.0%      0.0%      0.0%
 flops    13 x     5 x     5             14844700     100.0%      0.0%      0.0%
 flops     5 x     9 x    64             17383680     100.0%      0.0%      0.0%
 flops    13 x     9 x    32             30730752     100.0%      0.0%      0.0%
 flops     5 x     5 x    67             31248800     100.0%      0.0%      0.0%
 flops     9 x    13 x    32             33291648     100.0%      0.0%      0.0%
 flops    13 x     9 x    68             34369920     100.0%      0.0%      0.0%
 flops     9 x    13 x    68             37234080     100.0%      0.0%      0.0%
 flops     5 x     5 x    96             65510400     100.0%      0.0%      0.0%
 flops    13 x     9 x    67             77323896     100.0%      0.0%      0.0%
 flops     9 x    13 x    67             83767554     100.0%      0.0%      0.0%
 flops     5 x     5 x    64             87347200     100.0%      0.0%      0.0%
 flops    13 x     9 x    96            159314688     100.0%      0.0%      0.0%
 flops     9 x    13 x    96            172590912     100.0%      0.0%      0.0%
 flops    13 x     9 x    64            212419584     100.0%      0.0%      0.0%
 flops     9 x    13 x    64            230121216     100.0%      0.0%      0.0%
 flops    13 x    13 x     5            244036000     100.0%      0.0%      0.0%
 flops     5 x    13 x    32            281698560     100.0%      0.0%      0.0%
 flops    13 x     5 x    32            285018240     100.0%      0.0%      0.0%
 flops     5 x    13 x    68            315057600     100.0%      0.0%      0.0%
 flops    13 x     5 x    68            318770400     100.0%      0.0%      0.0%
 flops     5 x    13 x    67            688377430     100.0%      0.0%      0.0%
 flops    13 x     5 x    67            694396040     100.0%      0.0%      0.0%
 flops     5 x    13 x    96           1431119040     100.0%      0.0%      0.0%
 flops    13 x     5 x    96           1444984320     100.0%      0.0%      0.0%
 flops     5 x    13 x    64           1908158720     100.0%      0.0%      0.0%
 flops    13 x     5 x    64           1926645760     100.0%      0.0%      0.0%
 flops    13 x    13 x    32           4685491200     100.0%      0.0%      0.0%
 flops    13 x    13 x    68           5240352000     100.0%      0.0%      0.0%
 flops    13 x    13 x    67          11789507600     100.0%      0.0%      0.0%
 flops    13 x    13 x    96          24290572800     100.0%      0.0%      0.0%
 flops    13 x    13 x    64          32387430400     100.0%      0.0%      0.0%
 flops inhomo. stacks                           0       0.0%      0.0%      0.0%
 flops total                        89.333553E+09     100.0%      0.0%      0.0%
 flops max/rank                      5.972670E+09     100.0%      0.0%      0.0%
 matmuls inhomo. stacks                         0       0.0%      0.0%      0.0%
 matmuls total                            4825347     100.0%      0.0%      0.0%
 number of processed stacks                 73063     100.0%      0.0%      0.0%
 average stack size                                    66.0       0.0       0.0
 marketing flops                   117.765915E+09
 -------------------------------------------------------------------------------
 # multiplications                            246
 max memory usage/rank             806.916096E+06
 # max total images/rank                        1
 # max 3D layers                                1
 # MPI messages exchanged                   23616
 MPI messages size (bytes):
  total size                         3.657079E+09
  min size                           0.000000E+00
  max size                         241.152000E+03
  average size                     154.855984E+03
 MPI breakdown and total messages size (bytes):
             size <=      128                 990                        0
       128 < size <=     8192                  66                    13200
      8192 < size <=    32768                 912                 11363520
     32768 < size <=   131072                2736                218179584
    131072 < size <=  4194304               18912               3427522416
   4194304 < size <= 16777216                   0                        0
  16777216 < size                               0                        0
 -------------------------------------------------------------------------------
 -                                                                             -
 -                      DBCSR MESSAGE PASSING PERFORMANCE                      -
 -                                                                             -
 -------------------------------------------------------------------------------
 ROUTINE             CALLS      AVE VOLUME [Bytes]
 MP_Bcast               55                     12.
 MP_Allreduce         1854                      9.
 MP_Alltoall          6948                 187558.
 MP_ISend             3936                  61732.
 MP_IRecv             3936                  52464.
 -------------------------------------------------------------------------------

 -------------------------------------------------------------------------------
 -                                                                             -
 -                                DBM STATISTICS                               -
 -                                                                             -
 -------------------------------------------------------------------------------
    M  x    N  x    K                                          COUNT     PERCENT
 -------------------------------------------------------------------------------

 -------------------------------------------------------------------------------
 -                                                                             -
 -                                GRID STATISTICS                              -
 -                                                                             -
 -------------------------------------------------------------------------------
 LP    KERNEL             BACKEND                              COUNT     PERCENT
 4     collocate ortho    REF                                9496665      39.18%
 4     integrate ortho    REF                                9337725      38.52%
 3     collocate ortho    REF                                2369000       9.77%
 3     integrate ortho    REF                                2329270       9.61%
 2     collocate ortho    REF                                 354167       1.46%
 2     integrate ortho    REF                                 348198       1.44%
 0     collocate general  REF                                   5088       0.02%
 -------------------------------------------------------------------------------

 MEMORY| Estimated peak process memory [MiB]                                 770

 -------------------------------------------------------------------------------
 -                                                                             -
 -                         MESSAGE PASSING PERFORMANCE                         -
 -                                                                             -
 -------------------------------------------------------------------------------

 ROUTINE             CALLS      AVE VOLUME [Bytes]
 MP_Group               24
 MP_Bcast              778                2728297.
 MP_Allreduce         3338                   2290.
 MP_Sync               281
 MP_Alltoall          3298               20686750.
 MP_SendRecv         10482                 269932.
 MP_ISendRecv         7380                 158976.
 MP_Wait             30357
 MP_comm_split          11
 MP_ISend            19980                 616001.
 MP_IRecv            19980                 615947.
 MP_Recv               107                 309231.
 -------------------------------------------------------------------------------


 -------------------------------------------------------------------------------
 -                                                                             -
 -                           R E F E R E N C E S                               -
 -                                                                             -
 -------------------------------------------------------------------------------
 
 CP2K version 2023.1, the CP2K developers group (2023).
 CP2K is freely available from https://www.cp2k.org/ .

 Kuehne,Thomas D.; Iannuzzi,Marcella; Del Ben,Mauro;
 Rybkin,Vladimir V.; Seewald,Patrick; Stein,Frederick; Laino,Teodoro;
 Khaliullin,Rustam Z.; Schuett,Ole; Schiffmann,Florian; Golze,Dorothea;
 Wilhelm,Jan; Chulkov,Sergey; Bani-Hashemian,Mohammad Hossein;
 Weber,Valery; Borstnik,Urban; Taillefumier,Mathieu;
 Jakobovits,Alice Shoshana; Lazzaro,Alfio; Pabst,Hans; Mueller,Tiziano;
 Schade,Robert; Guidon,Manuel; Andermatt,Samuel; Holmberg,Nico;
 Schenter,Gregory K.; Hehn,Anna; Bussy,Augustin; Belleflamme,Fabian;
 Tabacchi,Gloria; Gloess,Andreas; Lass,Michael; Bethune,Iain;
 Mundy,Christopher J.; Plessl,Christian; Watkins,Matt;
 VandeVondele,Joost; Krack,Matthias; Hutter,Juerg. 
 The Journal of Chemical Physics, 152 (19), (2020). 
 CP2K: An electronic structure and molecular dynamics software package -
 Quickstep: Efficient and accurate electronic structure calculations.
 https://doi.org/10.1063/5.0007045

 Goerigk, Lars; Hansen, Andreas; Bauer, Christoph; Ehrlich, Stephan;
 Najibi, Asim; Grimme, Stefan. , 19 (48), (2017). 
 A look at the density functional theory zoo with the advanced GMTKN55 database
 for general main group thermochemistry, kinetics and noncovalent interactions.
 https://doi.org/10.1039/C7CP04913G

 Schuett, Ole; Messmer, Peter; Hutter, Juerg; VandeVondele, Joost. 
 Electronic Structure Calculations on Graphics Processing Units, John
 Wiley & Sons, Ltd, 173-190 (2016). 
 GPU-Accelerated Sparse Matrix-Matrix Multiplication for
 Linear Scaling Density Functional Theory.
 https://doi.org/10.1002/9781118670712.ch8

 Borstnik, U; VandeVondele, J; Weber, V; Hutter, J. 
 PARALLEL COMPUTING, 40 (5-6), 47-58 (2014). 
 Sparse matrix multiplication: The distributed block-compressed sparse
 row library.
 https://doi.org/10.1016/j.parco.2014.03.012

 Hutter, J; Iannuzzi, M; Schiffmann, F; VandeVondele, J. 
 WIREs Comput Mol Sci., 4 (1), 15-25 (2014). 
 CP2K: atomistic simulations of condensed matter systems.
 https://doi.org/10.1002/wcms.1159

 Marek, A; Blum, V; Johanni, R; Havu, V; Lang, B; Auckenthaler, T;
 Heinecke, A; Bungartz, H; Lederer, H. 
 Journal of Physics: Condensed Matter, 26 (21), (2014). 
 The ELPA library: scalable parallel eigenvalue solutions for
 electronic structure
 theory and computational science.
 https://doi.org/10.1088/0953-8984/26/21/213201

 Grimme, S; Ehrlich, S; Goerigk, L. 
 JOURNAL OF COMPUTATIONAL CHEMISTRY, 32, 1456 (2011). 
 Effect of the damping function in dispersion corrected density functional theory.
 https://doi.org/10.1002/jcc.21759

 Grimme, S; Antony, J; Ehrlich, S; Krieg, H. 
 JOURNAL OF CHEMICAL PHYSICS, 132 (15), 154104 (2010). 
 A consistent and accurate ab initio parametrization of density
 functional dispersion correction (DFT-D) for the 94 elements H-Pu.
 https://doi.org/10.1063/1.3382344

 VandeVondele, J; Hutter, J. 
 JOURNAL OF CHEMICAL PHYSICS, 127 (11), 114105 (2007). 
 Gaussian basis sets for accurate calculations on molecular systems in
 gas and condensed phases.
 https://doi.org/10.1063/1.2770708

 Krack, M. 
 THEORETICAL CHEMISTRY ACCOUNTS, 114 (1-3), 145-152 (2005). 
 Pseudopotentials for H to Kr optimized for gradient-corrected
 exchange-correlation functionals.
 https://doi.org/10.1007/s00214-005-0655-y

 VandeVondele, J; Krack, M; Mohamed, F; Parrinello, M; Chassaing, T;
 Hutter, J. COMPUTER PHYSICS COMMUNICATIONS, 167 (2), 103-128 (2005). 
 QUICKSTEP: Fast and accurate density functional calculations using a
 mixed Gaussian and plane waves approach.
 https://doi.org/10.1016/j.cpc.2004.12.014

 Frigo, M; Johnson, SG. 
 PROCEEDINGS OF THE IEEE, 93 (2), 216-231 (2005). 
 The design and implementation of FFTW3.
 https://doi.org/10.1109/JPROC.2004.840301

 Hartwigsen, C; Goedecker, S; Hutter, J. 
 PHYSICAL REVIEW B, 58 (7), 3641-3662 (1998). 
 Relativistic separable dual-space Gaussian pseudopotentials from H to Rn.
 https://doi.org/10.1103/PhysRevB.58.3641

 Lippert, G; Hutter, J; Parrinello, M. 
 MOLECULAR PHYSICS, 92 (3), 477-487 (1997). 
 A hybrid Gaussian and plane wave density functional scheme.
 https://doi.org/10.1080/002689797170220

 Perdew, JP; Burke, K; Ernzerhof, M. 
 PHYSICAL REVIEW LETTERS, 77 (18), 3865-3868 (1996). 
 Generalized gradient approximation made simple.
 https://doi.org/10.1103/PhysRevLett.77.3865

 Goedecker, S; Teter, M; Hutter, J. 
 PHYSICAL REVIEW B, 54 (3), 1703-1710 (1996). 
 Separable dual-space Gaussian pseudopotentials.
 https://doi.org/10.1103/PhysRevB.54.1703


 -------------------------------------------------------------------------------
 -                                                                             -
 -                                T I M I N G                                  -
 -                                                                             -
 -------------------------------------------------------------------------------
 SUBROUTINE                       CALLS  ASD         SELF TIME        TOTAL TIME
                                MAXIMUM       AVERAGE  MAXIMUM  AVERAGE  MAXIMUM
 CP2K                                 1  1.0    0.020    0.044  719.770  719.778
 qs_energies                          5  2.0    0.000    0.000  717.855  717.952
 scf_env_do_scf                       5  3.0    0.001    0.003  712.025  712.118
 scf_env_do_scf_inner_loop          246  4.0    0.007    0.033  712.025  712.115
 qs_ks_update_qs_env                246  5.0    0.001    0.002  301.437  301.470
 rebuild_ks_matrix                  246  6.0    0.001    0.001  301.342  301.372
 qs_ks_build_kohn_sham_matrix       246  7.0    0.032    0.038  301.341  301.371
 qs_rho_update_rho_low              251  5.0    0.001    0.001  214.453  214.476
 calculate_rho_elec                 251  6.0    0.784    0.823  214.452  214.475
 sum_up_and_integrate               246  8.0    2.189    2.354  197.224  197.257
 density_rs2pw                      251  7.0    0.018    0.021  171.895  196.336
 integrate_v_rspace                 246  9.0    0.007    0.009  195.035  195.125
 pw_transfer                       3223  8.9    0.241    0.257  160.029  165.691
 fft_wrap_pw1pw2                   2731  9.9    0.033    0.036  155.541  161.129
 fft_wrap_pw1pw2_150               1240 10.2   14.035   14.488  144.387  149.331
 grid_integrate_task_list           246 10.0   39.188  143.327   39.188  143.327
 rs_pw_transfer                    1993  9.5    0.032    0.035  119.949  143.028
 grid_collocate_task_list           251  7.0   39.789  134.321   39.789  134.321
 mp_alltoall_d11v                  3479  9.3  104.830  130.363  104.830  130.363
 rs_gather_matrices                 246 10.0    0.078    0.085  104.298  129.822
 mp_waitany                       19980 11.5  100.777  124.389  100.777  124.389
 rs_pw_transfer_RS2PW_150           256  9.0    2.977    3.946   99.452  122.648
 fft3d_ps                          2731 11.9   69.937   77.562  113.782  120.221
 gspace_mixing                      241  5.0    0.757    0.792  107.593  107.593
 qs_scf_new_mos                     246  5.0    0.003    0.003   92.093   92.278
 eigensolver                        246  6.0    0.015    0.021   88.715   88.763
 broyden_mixing                     241  6.0   76.858   77.292   77.641   77.976
 cp_fm_diag_elpa                    235  7.0    0.002    0.002   62.015   62.050
 cp_fm_diag_elpa_base               235  8.0   61.636   61.740   61.953   61.953
 qs_vxc_create                      246  8.0    0.007    0.009   60.077   61.199
 xc_vxc_pw_create                   246  9.0    3.301    3.927   60.070   61.190
 potential_pw2rs                    246 10.0    0.093    0.109   51.542   51.619
 xc_rho_set_and_dset_create         246 10.0    3.517    4.479   42.171   43.540
 x_to_yz                           1476 13.2   19.797   21.050   27.481   28.713
 cp_fm_triangular_multiply          738  7.0   26.332   26.514   26.332   26.514
 xc_functional_eval                 246 11.0    0.004    0.005   24.244   26.485
 pbe_lda_eval                       246 12.0   24.240   26.480   24.240   26.480
 xc_pw_derive                      1476 11.0    0.006    0.007   20.054   22.559
 pw_nn_compose_r                   1476 12.0   15.256   15.531   20.048   22.552
 yz_to_x                           1255 12.6   10.581   10.969   16.280   17.530
 mp_alltoall_z22v                  2731 13.9   13.384   16.069   13.384   16.069
 pw_scatter_p                      1476 12.2   15.158   15.395   15.158   15.395
 -------------------------------------------------------------------------------

 The number of warnings for this run is : 55
 
 -------------------------------------------------------------------------------
  **** **** ******  **  PROGRAM ENDED AT                 2025-10-01 13:40:10.502
 ***** ** ***  *** **   PROGRAM RAN ON                                sebnode120
 **    ****   ******    PROGRAM RAN BY                                    luehrs
 ***** **    ** ** **   PROGRAM PROCESS ID                                975446
  **** **  *******  **  PROGRAM STOPPED IN /home/luehrs/PhD/Sodium_batteries/Sod
                                           ium-graphene-functional_groups/Alcoho
                                           l/Hydrogenated_edges_armchair
