     106
 i =       81, E =      -573.6100096363
  C        -0.1033356353        0.0302875777       -0.0637508960
  C         4.1714969373       -7.3785329810        0.0317792082
  C         7.0259362402       -7.3759704406        0.0888423406
  C        -0.0934945955       -9.8516477298       -0.0372286107
  C         4.8918471064        1.2418449826       -0.0579018569
  C         6.2533489379        1.2614927394        0.0948229278
  C         7.0343844627        0.0713662930        0.2680600524
  C         2.7498580595       -4.9052551794        0.0240297067
  C         2.0107438881      -11.0652219710       -0.0843930226
  C         6.2816677164      -11.0635070946        0.0026899692
  C         2.7557735649       -7.3802067982        0.0098929423
  C         6.3134697510       -8.6145208930        0.0463335507
  C         4.1781968165       -4.9031542547        0.0609305113
  C         2.0373218922       -3.6738443757        0.0052501203
  C         6.3095399767       -6.1336832663        0.1064120102
  C         0.6164485383       -3.6754981406        0.0117574806
  C         4.9167963426      -11.0647360964       -0.0117190818
  C         2.0383640561       -6.1402335660        0.0132761264
  C         4.8885057320       -6.1367458345        0.0688692384
  C         4.8841208675       -8.6160124613        0.0238107593
  C         6.3136197718       -1.1721866078        0.1863020151
  C         4.8860522404       -1.1917313726        0.0483484866
  C         4.1640706745        0.0265020291       -0.0692599283
  C         2.7386550190        0.0296348709       -0.1558299122
  C         1.9958369023        1.2372549447       -0.2812521080
  C         0.6299462469        1.2381436615       -0.2301816064
  C         0.6453828915      -11.0662543136       -0.0861247727
  C        -0.0948508429       -4.9079600333        0.0284997285
  C         7.0187210450       -9.8471639988        0.0267476257
  C         0.6167428594       -6.1412187041        0.0130107386
  C        -0.1009529375       -7.3821519109        0.0076270695
  C         7.0241258018       -2.4166348766        0.2285239615
  C         0.6124516254       -8.6188891196       -0.0159295797
  C         2.0425077552       -8.6180004794       -0.0144099215
  C         2.7484425951       -9.8498578059       -0.0341441493
  C         4.1787380294       -9.8490722295       -0.0087469580
  C        -0.1031506013       -2.4383010886        0.0172256118
  C         7.0192292069       -4.8972656907        0.1606592731
  C         6.3079993840       -3.6612420993        0.1618071391
  C         4.8898969315       -3.6686887718        0.0916495129
  C         4.1733126404       -2.4320814727        0.0375999393
  C         2.7549320933       -2.4340184486       -0.0143624068
  C         2.0358373118       -1.2013452559       -0.0813505950
  C         0.6054787987       -1.2010959916       -0.0497654453
  C         8.4556917501        0.0556564105        0.4754217038
  C        12.7125675866       -7.3814815301        0.0855270794
  C        15.5688956177       -7.3822832230        0.0273216090
  C         8.4489180557       -9.8475970132        0.0332219710
  C        13.4724432902        1.2395451682        0.4083727895
  C        14.8271765490        1.2443558073        0.2242666331
  C        15.5611194328        0.0322539683        0.0983721110
  C        11.2904958947       -4.9060745142        0.2014860238
  C        10.5509926921      -11.0645144185       -0.0057760621
  C        14.8232267283      -11.0672574067       -0.0133923546
  C        11.2964250105       -7.3799775291        0.1058945954
  C        14.8557987595       -8.6194015592        0.0183107604
  C        12.7192322989       -4.9082292749        0.1700224486
  C        10.5795818927       -3.6732572601        0.2714095817
  C        14.8511311959       -6.1421447651        0.0685180081
  C         9.1583230059       -3.6666936849        0.2615135942
  C        13.4579410999      -11.0669688983        0.0010368109
  C        10.5790373589       -6.1390361116        0.1574770670
  C        13.4298442827       -6.1415298933        0.1067803284
  C        13.4258055454       -8.6187244905        0.0410018033
  C        14.8589421951       -1.2013300549        0.1635256558
  C        13.4352638485       -1.2044767640        0.3044784774
  C        12.7371635596        0.0223836283        0.4502833308
  C        11.3130206170        0.0132019544        0.5823202403
  C        10.5858365612        1.2081285466        0.8073906207
  C         9.2192698304        1.2321838087        0.7446349295
  C         9.1860175204      -11.0635194035       -0.0043418565
  C         8.4470408949       -4.8998578918        0.1947571744
  C        15.5619234473       -9.8516452233       -0.0127541973
  C         9.1571247830       -6.1358071904        0.1573453687
  C         8.4411823115       -7.3769206758        0.1076423531
  C        15.5682446359       -2.4382410134        0.0920103576
  C         9.1539814870       -8.6153022538        0.0734185804
  C        10.5836156327       -8.6170650247        0.0721482909
  C        11.2892207612       -9.8495351928        0.0305606021
  C        12.7198863186       -9.8508467497        0.0226991080
  C         8.4421656266       -2.4236991859        0.3015181155
  C        15.5624566772       -4.9082842743        0.0687913950
  C        14.8509918327       -3.6767599082        0.1186254853
  C        13.4316513058       -3.6768062901        0.1900880616
  C        12.7171809916       -2.4397677726        0.2881596594
  C        11.2995066527       -2.4390292062        0.3430008047
  C        10.5896784603       -1.2040908850        0.4601229782
  C         9.1561371922       -1.1896224609        0.4224381639
  H         0.1042386925        2.1828968638       -0.3289869253
  H         2.5053829296        2.1858359751       -0.4215996835
  H         4.3775911218        2.1905502796       -0.1934557571
  O         6.8716588383        2.5497396984        0.1245392586
  H         8.7364341496        2.1949121860        0.8308701993
  H        11.1126678267        2.1360946509        1.0076990404
  H        12.9576117138        2.1912361636        0.4952906003
  H        15.3434385201        2.1987399383        0.1907856446
  H         0.1283649841      -12.0192148531       -0.1274237583
  H         2.5289601988      -12.0175370545       -0.1245473937
  H         4.3997158293      -12.0183909979       -0.0255917916
  H         6.8000173832      -12.0165260115       -0.0013998210
  H         8.6676909610      -12.0158898903       -0.0384935085
  H        11.0679392646      -12.0176781274       -0.0415019269
  H        12.9403415365      -12.0204743219       -0.0003656205
  H        15.3404616793      -12.0210408072       -0.0239442474
  H         6.4734837968        3.0860610660       -0.5846176478
 Na         6.5022526549        2.3903046623        2.4536363734
