 DBCSR| CPU Multiplication driver                                           BLAS (U)
 DBCSR| Multrec recursion limit                                              512 (U)
 DBCSR| Multiplication stack size                                           1000 (D)
 DBCSR| Maximum elements for images                                    UNLIMITED (U)
 DBCSR| Multiplicative factor virtual images                                   1 (U)
 DBCSR| Use multiplication densification                                       T (D)
 DBCSR| Multiplication size stacks                                             3 (U)
 DBCSR| Use memory pool for CPU allocation                                     F (U)
 DBCSR| Number of 3D layers                                               SINGLE (U)
 DBCSR| Use MPI memory allocation                                              F (U)
 DBCSR| Use RMA algorithm                                                      F (U)
 DBCSR| Use Communication thread                                               T (U)
 DBCSR| Communication thread load                                             87 (D)
 DBCSR| MPI: My process id                                                     0
 DBCSR| MPI: Number of processes                                              16
 DBCSR| OMP: Current number of threads                                         1
 DBCSR| OMP: Max number of threads                                             1
 DBCSR| Split modifier for TAS multiplication algorithm                  1.0E+00 (U)


  **** **** ******  **  PROGRAM STARTED AT               2025-06-14 22:39:45.052
 ***** ** ***  *** **   PROGRAM STARTED ON                            sebnode133
 **    ****   ******    PROGRAM STARTED BY                                luehrs
 ***** **    ** ** **   PROGRAM PROCESS ID                               1807314
  **** **  *******  **  PROGRAM STARTED IN /home/luehrs/PhD/Sodium_batteries/Sod
                                           ium-graphene-curvature/Sinus_surface/
                                           Sinus_2

 CP2K| version string:                                       CP2K version 2023.1
 CP2K| source code revision number:                                  git:b888bd8
 CP2K| cp2kflags: omp libint fftw3 libxc elpa parallel scalapack spglib         
 CP2K| is freely available from                            https://www.cp2k.org/
 CP2K| Program compiled at                          Tue Jan 10 19:52:03 UTC 2023
 CP2K| Program compiled on                                            x86-ubc-01
 CP2K| Program compiled for                                Linux-x86_64-gfortran
 CP2K| Data directory path                                       /usr/share/cp2k
 CP2K| Input file name                                         input.zig-zag.inp

 GLOBAL| Force Environment number                                              1
 GLOBAL| Basis set file name                                      ./BASIS_MOLOPT
 GLOBAL| Potential file name                                    ./GTH_POTENTIALS
 GLOBAL| MM Potential file name                                     MM_POTENTIAL
 GLOBAL| Coordinate file name                                  sinus_relaxed.xyz
 GLOBAL| Method name                                                        CP2K
 GLOBAL| Project name                                 graphene_sinus_Sodium_BSSE
 GLOBAL| Run type                                                           BSSE
 GLOBAL| FFT library                                                       FFTW3
 GLOBAL| Diagonalization library                                            ELPA
 GLOBAL| DGEMM library                                                      BLAS
 GLOBAL| Minimum number of eigenvectors for ELPA usage                        16
 GLOBAL| Orthonormality check for eigenvectors                          DISABLED
 GLOBAL| Matrix multiplication library                                 ScaLAPACK
 GLOBAL| All-to-all communication in single precision                          F
 GLOBAL| FFTs using library dependent lengths                                  F
 GLOBAL| Grid backend                                                       AUTO
 GLOBAL| Global print level                                                  LOW
 GLOBAL| MPI I/O enabled                                                       T
 GLOBAL| Total number of message passing processes                            16
 GLOBAL| Number of threads for this process                                    1
 GLOBAL| This output is from process                                           0
 GLOBAL| Stack size for threads created by OpenMP (OMP_STACKSIZE)        default
 GLOBAL| CPU model name                          AMD EPYC 7513 32-Core Processor

 MEMORY| system memory details [Kb]
 MEMORY|                        rank 0           min           max       average
 MEMORY| MemTotal            131828104     131828104     131828104     131828104
 MEMORY| MemFree              88653608      88653412      88653608      88653510
 MEMORY| Buffers                253036        253036        253036        253036
 MEMORY| Cached                1437696       1437696       1437708       1437702
 MEMORY| Slab                   855044        855044        855156        855100
 MEMORY| SReclaimable           201804        201804        201932        201868
 MEMORY| MemLikelyFree        90546144      90546088      90546144      90546116


 GENERATE|  Preliminary Number of Bonds generated:                             0
 GENERATE|  Achieved consistency in connectivity generation.

 *******************************************************************************
 *******************************************************************************
 **                                                                           **
 **     #####                         ##              ##                      **
 **    ##   ##            ##          ##              ##                      **
 **   ##     ##                       ##            ######                    **
 **   ##     ##  ##   ##  ##   #####  ##  ##   ####   ##    #####    #####    **
 **   ##     ##  ##   ##  ##  ##      ## ##   ##      ##   ##   ##  ##   ##   **
 **   ##  ## ##  ##   ##  ##  ##      ####     ###    ##   ######   ######    **
 **    ##  ###   ##   ##  ##  ##      ## ##      ##   ##   ##       ##        **
 **     #######   #####   ##   #####  ##  ##  ####    ##    #####   ##        **
 **           ##                                                    ##        **
 **                                                                           **
 **                                                ... make the atoms dance   **
 **                                                                           **
 **            Copyright (C) by CP2K developers group (2000-2022)             **
 **                      J. Chem. Phys. 152, 194103 (2020)                    **
 **                                                                           **
 *******************************************************************************


 TOTAL NUMBERS AND MAXIMUM NUMBERS

  Total number of            - Atomic kinds:                                   2
                             - Atoms:                                        193
                             - Shell sets:                                   193
                             - Shells:                                       965
                             - Primitive Cartesian functions:                967
                             - Cartesian basis functions:                   2697
                             - Spherical basis functions:                   2505

  Maximum angular momentum of- Orbital basis functions:                        2
                             - Local part of the GTH pseudopotential:          2
                             - Non-local part of the GTH pseudopotential:      1


 SCF PARAMETERS         Density guess:                                    ATOMIC
                        --------------------------------------------------------
                        max_scf:                                             300
                        max_scf_history:                                       0
                        max_diis:                                              4
                        --------------------------------------------------------
                        eps_scf:                                        3.00E-07
                        eps_scf_history:                                0.00E+00
                        eps_diis:                                       1.00E-01
                        eps_eigval:                                     1.00E-05
                        --------------------------------------------------------
                        level_shift [a.u.]:                             0.000000
                        added MOs                                       100    0
                        --------------------------------------------------------
                        Mixing method:                            BROYDEN_MIXING
                                                charge density mixing in g-space
                        --------------------------------------------------------
                        Smear method:                                FERMI_DIRAC
                        Electronic temperature [K]:                        300.0
                        Electronic temperature [a.u.]:                  9.50E-04
                        Accuracy threshold:                             1.00E-10
                        --------------------------------------------------------
                        Outer loop SCF in use 
                        No variables optimised in outer loop
                        eps_scf                                         1.00E-06
                        max_scf                                              300
                        DIIS optimization
                        DIIS buffer length                                     3
                        step_size                                       5.00E-01

 -------------------------------------------------------------------------------
 -                                                                             -
 -  BSSE CALCULATION         FRAGMENT CONF: 10        FRAGMENT SUBCONF: 10     -
 -                           CHARGE =     0           MULTIPLICITY =     0     -
 -                                                                             -
 -                 ATOM INDEX                              ATOM NAME           -
 -                 ----------                              ---------           -
 -                      1                                   C                  -
 -                      2                                   C                  -
 -                      3                                   C                  -
 -                      4                                   C                  -
 -                      5                                   C                  -
 -                      6                                   C                  -
 -                      7                                   C                  -
 -                      8                                   C                  -
 -                      9                                   C                  -
 -                     10                                   C                  -
 -                     11                                   C                  -
 -                     12                                   C                  -
 -                     13                                   C                  -
 -                     14                                   C                  -
 -                     15                                   C                  -
 -                     16                                   C                  -
 -                     17                                   C                  -
 -                     18                                   C                  -
 -                     19                                   C                  -
 -                     20                                   C                  -
 -                     21                                   C                  -
 -                     22                                   C                  -
 -                     23                                   C                  -
 -                     24                                   C                  -
 -                     25                                   C                  -
 -                     26                                   C                  -
 -                     27                                   C                  -
 -                     28                                   C                  -
 -                     29                                   C                  -
 -                     30                                   C                  -
 -                     31                                   C                  -
 -                     32                                   C                  -
 -                     33                                   C                  -
 -                     34                                   C                  -
 -                     35                                   C                  -
 -                     36                                   C                  -
 -                     37                                   C                  -
 -                     38                                   C                  -
 -                     39                                   C                  -
 -                     40                                   C                  -
 -                     41                                   C                  -
 -                     42                                   C                  -
 -                     43                                   C                  -
 -                     44                                   C                  -
 -                     45                                   C                  -
 -                     46                                   C                  -
 -                     47                                   C                  -
 -                     48                                   C                  -
 -                     49                                   C                  -
 -                     50                                   C                  -
 -                     51                                   C                  -
 -                     52                                   C                  -
 -                     53                                   C                  -
 -                     54                                   C                  -
 -                     55                                   C                  -
 -                     56                                   C                  -
 -                     57                                   C                  -
 -                     58                                   C                  -
 -                     59                                   C                  -
 -                     60                                   C                  -
 -                     61                                   C                  -
 -                     62                                   C                  -
 -                     63                                   C                  -
 -                     64                                   C                  -
 -                     65                                   C                  -
 -                     66                                   C                  -
 -                     67                                   C                  -
 -                     68                                   C                  -
 -                     69                                   C                  -
 -                     70                                   C                  -
 -                     71                                   C                  -
 -                     72                                   C                  -
 -                     73                                   C                  -
 -                     74                                   C                  -
 -                     75                                   C                  -
 -                     76                                   C                  -
 -                     77                                   C                  -
 -                     78                                   C                  -
 -                     79                                   C                  -
 -                     80                                   C                  -
 -                     81                                   C                  -
 -                     82                                   C                  -
 -                     83                                   C                  -
 -                     84                                   C                  -
 -                     85                                   C                  -
 -                     86                                   C                  -
 -                     87                                   C                  -
 -                     88                                   C                  -
 -                     89                                   C                  -
 -                     90                                   C                  -
 -                     91                                   C                  -
 -                     92                                   C                  -
 -                     93                                   C                  -
 -                     94                                   C                  -
 -                     95                                   C                  -
 -                     96                                   C                  -
 -                     97                                   C                  -
 -                     98                                   C                  -
 -                     99                                   C                  -
 -                    100                                   C                  -
 -                    101                                   C                  -
 -                    102                                   C                  -
 -                    103                                   C                  -
 -                    104                                   C                  -
 -                    105                                   C                  -
 -                    106                                   C                  -
 -                    107                                   C                  -
 -                    108                                   C                  -
 -                    109                                   C                  -
 -                    110                                   C                  -
 -                    111                                   C                  -
 -                    112                                   C                  -
 -                    113                                   C                  -
 -                    114                                   C                  -
 -                    115                                   C                  -
 -                    116                                   C                  -
 -                    117                                   C                  -
 -                    118                                   C                  -
 -                    119                                   C                  -
 -                    120                                   C                  -
 -                    121                                   C                  -
 -                    122                                   C                  -
 -                    123                                   C                  -
 -                    124                                   C                  -
 -                    125                                   C                  -
 -                    126                                   C                  -
 -                    127                                   C                  -
 -                    128                                   C                  -
 -                    129                                   C                  -
 -                    130                                   C                  -
 -                    131                                   C                  -
 -                    132                                   C                  -
 -                    133                                   C                  -
 -                    134                                   C                  -
 -                    135                                   C                  -
 -                    136                                   C                  -
 -                    137                                   C                  -
 -                    138                                   C                  -
 -                    139                                   C                  -
 -                    140                                   C                  -
 -                    141                                   C                  -
 -                    142                                   C                  -
 -                    143                                   C                  -
 -                    144                                   C                  -
 -                    145                                   C                  -
 -                    146                                   C                  -
 -                    147                                   C                  -
 -                    148                                   C                  -
 -                    149                                   C                  -
 -                    150                                   C                  -
 -                    151                                   C                  -
 -                    152                                   C                  -
 -                    153                                   C                  -
 -                    154                                   C                  -
 -                    155                                   C                  -
 -                    156                                   C                  -
 -                    157                                   C                  -
 -                    158                                   C                  -
 -                    159                                   C                  -
 -                    160                                   C                  -
 -                    161                                   C                  -
 -                    162                                   C                  -
 -                    163                                   C                  -
 -                    164                                   C                  -
 -                    165                                   C                  -
 -                    166                                   C                  -
 -                    167                                   C                  -
 -                    168                                   C                  -
 -                    169                                   C                  -
 -                    170                                   C                  -
 -                    171                                   C                  -
 -                    172                                   C                  -
 -                    173                                   C                  -
 -                    174                                   C                  -
 -                    175                                   C                  -
 -                    176                                   C                  -
 -                    177                                   C                  -
 -                    178                                   C                  -
 -                    179                                   C                  -
 -                    180                                   C                  -
 -                    181                                   C                  -
 -                    182                                   C                  -
 -                    183                                   C                  -
 -                    184                                   C                  -
 -                    185                                   C                  -
 -                    186                                   C                  -
 -                    187                                   C                  -
 -                    188                                   C                  -
 -                    189                                   C                  -
 -                    190                                   C                  -
 -                    191                                   C                  -
 -                    192                                   C                  -
 -------------------------------------------------------------------------------

 *******************************************************************************
 *******************************************************************************
 **                                                                           **
 **     #####                         ##              ##                      **
 **    ##   ##            ##          ##              ##                      **
 **   ##     ##                       ##            ######                    **
 **   ##     ##  ##   ##  ##   #####  ##  ##   ####   ##    #####    #####    **
 **   ##     ##  ##   ##  ##  ##      ## ##   ##      ##   ##   ##  ##   ##   **
 **   ##  ## ##  ##   ##  ##  ##      ####     ###    ##   ######   ######    **
 **    ##  ###   ##   ##  ##  ##      ## ##      ##   ##   ##       ##        **
 **     #######   #####   ##   #####  ##  ##  ####    ##    #####   ##        **
 **           ##                                                    ##        **
 **                                                                           **
 **                                                ... make the atoms dance   **
 **                                                                           **
 **            Copyright (C) by CP2K developers group (2000-2022)             **
 **                      J. Chem. Phys. 152, 194103 (2020)                    **
 **                                                                           **
 *******************************************************************************


 TOTAL NUMBERS AND MAXIMUM NUMBERS

  Total number of            - Atomic kinds:                                   1
                             - Atoms:                                        192
                             - Shell sets:                                   192
                             - Shells:                                       960
                             - Primitive Cartesian functions:                960
                             - Cartesian basis functions:                   2688
                             - Spherical basis functions:                   2496

  Maximum angular momentum of- Orbital basis functions:                        2
                             - Local part of the GTH pseudopotential:          2
                             - Non-local part of the GTH pseudopotential:      0


 SCF PARAMETERS         Density guess:                                    ATOMIC
                        --------------------------------------------------------
                        max_scf:                                             300
                        max_scf_history:                                       0
                        max_diis:                                              4
                        --------------------------------------------------------
                        eps_scf:                                        3.00E-07
                        eps_scf_history:                                0.00E+00
                        eps_diis:                                       1.00E-01
                        eps_eigval:                                     1.00E-05
                        --------------------------------------------------------
                        level_shift [a.u.]:                             0.000000
                        added MOs                                       100    0
                        --------------------------------------------------------
                        Mixing method:                            BROYDEN_MIXING
                                                charge density mixing in g-space
                        --------------------------------------------------------
                        Smear method:                                FERMI_DIRAC
                        Electronic temperature [K]:                        300.0
                        Electronic temperature [a.u.]:                  9.50E-04
                        Accuracy threshold:                             1.00E-10
                        --------------------------------------------------------
                        Outer loop SCF in use 
                        No variables optimised in outer loop
                        eps_scf                                         1.00E-06
                        max_scf                                              300
                        DIIS optimization
                        DIIS buffer length                                     3
                        step_size                                       5.00E-01

 Number of electrons:                                                        768
 Number of occupied orbitals:                                                384
 Number of molecular orbitals:                                               484

 Number of orbital functions:                                               2496
 Number of independent orbital functions:                                   2496

 Extrapolation method: initial_guess


 SCF WAVEFUNCTION OPTIMIZATION

  Step     Update method      Time    Convergence         Total energy    Change
  ------------------------------------------------------------------------------
     1 NoMix/Diag. 0.10E+00  142.9     0.92573995     -1085.8868106577 -1.09E+03
     2 Broy./Diag. 0.10E+00  140.0     0.00229509     -1044.4148226619  4.15E+01
     3 Broy./Diag. 0.10E+00  117.1     0.02555233     -1076.5065945111 -3.21E+01
     4 Broy./Diag. 0.10E+00  141.6     0.00039857     -1090.1707828325 -1.37E+01
     5 Broy./Diag. 0.10E+00  152.4     0.00307513     -1090.7559528082 -5.85E-01
     6 Broy./Diag. 0.10E+00  158.1     0.00011980     -1091.9313659732 -1.18E+00
     7 Broy./Diag. 0.10E+00  148.7     0.00108855     -1092.4520080924 -5.21E-01
     8 Broy./Diag. 0.10E+00  137.4     0.00005286     -1092.8162992074 -3.64E-01
     9 Broy./Diag. 0.10E+00  152.3     0.00086656     -1092.9905671852 -1.74E-01
    10 Broy./Diag. 0.10E+00  144.1     0.00005674     -1093.2108226875 -2.20E-01
    11 Broy./Diag. 0.10E+00  143.1     0.00094487     -1093.1684719275  4.24E-02
    12 Broy./Diag. 0.10E+00  131.8     0.00002902     -1093.2474435390 -7.90E-02
    13 Broy./Diag. 0.10E+00  135.3     0.00066499     -1093.2811158966 -3.37E-02
    14 Broy./Diag. 0.10E+00  137.4     0.00005817     -1093.3197145154 -3.86E-02
    15 Broy./Diag. 0.10E+00  147.6     0.00044539     -1093.3580881091 -3.84E-02
    16 Broy./Diag. 0.10E+00  148.0     0.00005625     -1093.3763917703 -1.83E-02
    17 Broy./Diag. 0.10E+00  148.6     0.00008296     -1093.3562337567  2.02E-02
    18 Broy./Diag. 0.10E+00  150.8     0.00001976     -1093.3453886568  1.08E-02
    19 Broy./Diag. 0.10E+00  163.8     0.00001824     -1093.3423351526  3.05E-03
    20 Broy./Diag. 0.10E+00  136.8     0.00001065     -1093.3438771276 -1.54E-03
    21 Broy./Diag. 0.10E+00  134.4     0.00001857     -1093.3442436338 -3.67E-04
    22 Broy./Diag. 0.10E+00  135.3     0.00002168     -1093.3488176950 -4.57E-03
    23 Broy./Diag. 0.10E+00  127.7     0.00001042     -1093.3523368997 -3.52E-03
    24 Broy./Diag. 0.10E+00  142.7     0.00006261     -1093.3512278246  1.11E-03
    25 Broy./Diag. 0.10E+00  147.3     0.00001097     -1093.3524308440 -1.20E-03
    26 Broy./Diag. 0.10E+00  152.6     0.00005149     -1093.3534232504 -9.92E-04
    27 Broy./Diag. 0.10E+00  148.0     0.00001231     -1093.3578299904 -4.41E-03
    28 Broy./Diag. 0.10E+00  119.1     0.00001044     -1093.3611052811 -3.28E-03
    29 Broy./Diag. 0.10E+00  134.5     0.00001244     -1093.3631184870 -2.01E-03
    30 Broy./Diag. 0.10E+00  121.3     0.00000356     -1093.3638431004 -7.25E-04
    31 Broy./Diag. 0.10E+00  165.2     0.00001510     -1093.3638995205 -5.64E-05
    32 Broy./Diag. 0.10E+00  171.4     0.00000220     -1093.3656696669 -1.77E-03
    33 Broy./Diag. 0.10E+00  164.9     0.00000675     -1093.3651465724  5.23E-04
    34 Broy./Diag. 0.10E+00  171.7     0.00000996     -1093.3664414117 -1.29E-03
    35 Broy./Diag. 0.10E+00  151.8     0.00000275     -1093.3677368925 -1.30E-03
    36 Broy./Diag. 0.10E+00  148.3     0.00001880     -1093.3683415885 -6.05E-04
    37 Broy./Diag. 0.10E+00  132.9     0.00000513     -1093.3681315662  2.10E-04
    38 Broy./Diag. 0.10E+00  142.5     0.00001269     -1093.3674350163  6.97E-04
    39 Broy./Diag. 0.10E+00  159.9     0.00000434     -1093.3681030914 -6.68E-04
    40 Broy./Diag. 0.10E+00  161.5     0.00000662     -1093.3690143035 -9.11E-04
    41 Broy./Diag. 0.10E+00  158.3     0.00000199     -1093.3696775654 -6.63E-04
    42 Broy./Diag. 0.10E+00  171.9     0.00000106     -1093.3698388715 -1.61E-04
    43 Broy./Diag. 0.10E+00  179.5     0.00000273     -1093.3701466133 -3.08E-04
    44 Broy./Diag. 0.10E+00  159.9     0.00000256     -1093.3701889496 -4.23E-05
    45 Broy./Diag. 0.10E+00  152.2     0.00000201     -1093.3699454959  2.43E-04
    46 Broy./Diag. 0.10E+00  128.3     0.00000317     -1093.3700503276 -1.05E-04
    47 Broy./Diag. 0.10E+00  155.6     0.00000214     -1093.3702054620 -1.55E-04
    48 Broy./Diag. 0.10E+00  156.2     0.00000216     -1093.3704352706 -2.30E-04
    49 Broy./Diag. 0.10E+00  160.5     0.00000099     -1093.3705070169 -7.17E-05
    50 Broy./Diag. 0.10E+00  171.1     0.00000173     -1093.3704829911  2.40E-05
    51 Broy./Diag. 0.10E+00  146.9     0.00000045     -1093.3704813948  1.60E-06
    52 Broy./Diag. 0.10E+00  157.1     0.00000078     -1093.3705123151 -3.09E-05
    53 Broy./Diag. 0.10E+00  159.5     0.00000109     -1093.3705667658 -5.45E-05
    54 Broy./Diag. 0.10E+00  175.2     0.00000053     -1093.3706533048 -8.65E-05
    55 Broy./Diag. 0.10E+00  159.5     0.00000078     -1093.3708067116 -1.53E-04
    56 Broy./Diag. 0.10E+00  148.6     0.00000079     -1093.3708910542 -8.43E-05
    57 Broy./Diag. 0.10E+00  162.8     0.00000131     -1093.3709093687 -1.83E-05
    58 Broy./Diag. 0.10E+00  175.3     0.00000039     -1093.3709117208 -2.35E-06
    59 Broy./Diag. 0.10E+00  160.9     0.00000052     -1093.3709102767  1.44E-06
    60 Broy./Diag. 0.10E+00  164.2     0.00000056     -1093.3709333506 -2.31E-05
    61 Broy./Diag. 0.10E+00  121.7     0.00000014     -1093.3709517339 -1.84E-05

  *** SCF run converged in    61 steps ***


  Electronic density on regular grids:       -768.0000000000        0.0000000000
  Core density on regular grids:              767.9999999993       -0.0000000007
  Total charge density on r-space grids:       -0.0000000006
  Total charge density g-space grids:          -0.0000000006

  Overlap energy of the core charge distribution:               0.00002995778927
  Self energy of the core charge distribution:              -2560.32152193892080
  Core Hamiltonian energy:                                    800.99607446531263
  Hartree energy:                                            1001.38019973294388
  Exchange-correlation energy:                               -335.17927316662588
  Dispersion energy:                                           -0.24646061159078
  Electronic entropic energy:                                  -0.00000017277492
  Fermi energy:                                                -0.10926917154207

  Total energy:                                             -1093.37095173386660

  outer SCF iter =    1 RMS gradient =   0.14E-06 energy =      -1093.3709517339
  outer SCF loop converged in   1 iterations or   61 steps


 *** WARNING in qs_loc_utils.F:1500 :: User requested the calculation of ***
 *** the localized wavefunction but the section LOCALIZE was not         ***
 *** specified. Localization will not be performed!                      ***


 -------------------------------------------------------------------------------
 -                                                                             -
 -  BSSE CALCULATION         FRAGMENT CONF: 01        FRAGMENT SUBCONF: 01     -
 -                           CHARGE =     0           MULTIPLICITY =     0     -
 -                                                                             -
 -                 ATOM INDEX                              ATOM NAME           -
 -                 ----------                              ---------           -
 -                    193                                   Na                 -
 -------------------------------------------------------------------------------

 *******************************************************************************
 *******************************************************************************
 **                                                                           **
 **     #####                         ##              ##                      **
 **    ##   ##            ##          ##              ##                      **
 **   ##     ##                       ##            ######                    **
 **   ##     ##  ##   ##  ##   #####  ##  ##   ####   ##    #####    #####    **
 **   ##     ##  ##   ##  ##  ##      ## ##   ##      ##   ##   ##  ##   ##   **
 **   ##  ## ##  ##   ##  ##  ##      ####     ###    ##   ######   ######    **
 **    ##  ###   ##   ##  ##  ##      ## ##      ##   ##   ##       ##        **
 **     #######   #####   ##   #####  ##  ##  ####    ##    #####   ##        **
 **           ##                                                    ##        **
 **                                                                           **
 **                                                ... make the atoms dance   **
 **                                                                           **
 **            Copyright (C) by CP2K developers group (2000-2022)             **
 **                      J. Chem. Phys. 152, 194103 (2020)                    **
 **                                                                           **
 *******************************************************************************

 *** WARNING in qs_environment.F:1486 :: More added MOs requested than     ***
 *** available. The full set of unoccupied MOs will be used. Use           ***
 *** 'ADDED_MOS -1' to always use all available MOs and to get rid of this ***
 *** warning.                                                              ***



 TOTAL NUMBERS AND MAXIMUM NUMBERS

  Total number of            - Atomic kinds:                                   1
                             - Atoms:                                          1
                             - Shell sets:                                     1
                             - Shells:                                         5
                             - Primitive Cartesian functions:                  7
                             - Cartesian basis functions:                      9
                             - Spherical basis functions:                      9

  Maximum angular momentum of- Orbital basis functions:                        1
                             - Local part of the GTH pseudopotential:          2
                             - Non-local part of the GTH pseudopotential:      1


 SCF PARAMETERS         Density guess:                                    ATOMIC
                        --------------------------------------------------------
                        max_scf:                                             300
                        max_scf_history:                                       0
                        max_diis:                                              4
                        --------------------------------------------------------
                        eps_scf:                                        3.00E-07
                        eps_scf_history:                                0.00E+00
                        eps_diis:                                       1.00E-01
                        eps_eigval:                                     1.00E-05
                        --------------------------------------------------------
                        level_shift [a.u.]:                             0.000000
                        added MOs                                         4    0
                        --------------------------------------------------------
                        Mixing method:                            BROYDEN_MIXING
                                                charge density mixing in g-space
                        --------------------------------------------------------
                        Smear method:                                FERMI_DIRAC
                        Electronic temperature [K]:                        300.0
                        Electronic temperature [a.u.]:                  9.50E-04
                        Accuracy threshold:                             1.00E-10
                        --------------------------------------------------------
                        Outer loop SCF in use 
                        No variables optimised in outer loop
                        eps_scf                                         1.00E-06
                        max_scf                                              300
                        DIIS optimization
                        DIIS buffer length                                     3
                        step_size                                       5.00E-01

 Number of electrons:                                                          9
 Number of occupied orbitals:                                                  5
 Number of molecular orbitals:                                                 9

 Number of orbital functions:                                                  9
 Number of independent orbital functions:                                      9

 Extrapolation method: initial_guess


 SCF WAVEFUNCTION OPTIMIZATION

  Step     Update method      Time    Convergence         Total energy    Change
  ------------------------------------------------------------------------------
     1 NoMix/Diag. 0.10E+00    6.6     0.02074963       -47.1653306820 -4.72E+01
     2 Broy./Diag. 0.10E+00    4.1     0.00009782       -47.1219029536  4.34E-02
     3 Broy./Diag. 0.10E+00    7.3     0.00101030       -47.1632906293 -4.14E-02
     4 Broy./Diag. 0.10E+00    7.0     0.00002407       -47.1710488156 -7.76E-03
     5 Broy./Diag. 0.10E+00    8.2     0.00026049       -47.1710247588  2.41E-05
     6 Broy./Diag. 0.10E+00    8.6     0.00000867       -47.1711469895 -1.22E-04
     7 Broy./Diag. 0.10E+00    9.3     0.00014795       -47.1693787932  1.77E-03
     8 Broy./Diag. 0.10E+00    8.2     0.00001917       -47.1683879852  9.91E-04
     9 Broy./Diag. 0.10E+00    8.3     0.00019701       -47.1677598731  6.28E-04
    10 Broy./Diag. 0.10E+00    9.1     0.00000921       -47.1673870251  3.73E-04
    11 Broy./Diag. 0.10E+00    8.3     0.00009139       -47.1672136824  1.73E-04
    12 Broy./Diag. 0.10E+00    9.1     0.00000151       -47.1671774768  3.62E-05
    13 Broy./Diag. 0.10E+00    8.2     0.00000565       -47.1672991141 -1.22E-04
    14 Broy./Diag. 0.10E+00    8.0     0.00000080       -47.1673215295 -2.24E-05
    15 Broy./Diag. 0.10E+00    9.0     0.00001116       -47.1671472306  1.74E-04
    16 Broy./Diag. 0.10E+00    9.2     0.00000225       -47.1671265468  2.07E-05
    17 Broy./Diag. 0.10E+00    8.9     0.00000235       -47.1671779651 -5.14E-05
    18 Broy./Diag. 0.10E+00    4.3     0.00000204       -47.1672218246 -4.39E-05
    19 Broy./Diag. 0.10E+00    6.9     0.00000211       -47.1672396800 -1.79E-05
    20 Broy./Diag. 0.10E+00    8.0     0.00000189       -47.1672329650  6.72E-06
    21 Broy./Diag. 0.10E+00    8.8     0.00000223       -47.1672135032  1.95E-05
    22 Broy./Diag. 0.10E+00    8.3     0.00000261       -47.1671931656  2.03E-05
    23 Broy./Diag. 0.10E+00    7.2     0.00000359       -47.1671726178  2.05E-05
    24 Broy./Diag. 0.10E+00    7.5     0.00000074       -47.1671709862  1.63E-06
    25 Broy./Diag. 0.10E+00    9.2     0.00000032       -47.1671816047 -1.06E-05
    26 Broy./Diag. 0.10E+00    7.6     0.00000025       -47.1671755718  6.03E-06

  *** SCF run converged in    26 steps ***


  Electronic density on regular grids:         -9.0003980621       -0.0003980621
  Core density on regular grids:                9.0000000000       -0.0000000000
  Total charge density on r-space grids:       -0.0003980621
  Total charge density g-space grids:          -0.0003980621

  Overlap energy of the core charge distribution:               0.00000000000000
  Self energy of the core charge distribution:                -96.60649019442629
  Core Hamiltonian energy:                                     29.76237989991227
  Hartree energy:                                              26.72264529694849
  Exchange-correlation energy:                                 -7.04438493606956
  Dispersion energy:                                           -0.00000859667287
  Electronic entropic energy:                                  -0.00131704147593
  Fermi energy:                                                -0.09138338560960

  Total energy:                                               -47.16717557178389

  outer SCF iter =    1 RMS gradient =   0.25E-06 energy =        -47.1671755718
  outer SCF loop converged in   1 iterations or   26 steps


 *** WARNING in qs_loc_utils.F:1500 :: User requested the calculation of ***
 *** the localized wavefunction but the section LOCALIZE was not         ***
 *** specified. Localization will not be performed!                      ***


 -------------------------------------------------------------------------------
 -                                                                             -
 -  BSSE CALCULATION         FRAGMENT CONF: 11        FRAGMENT SUBCONF: 10     -
 -                           CHARGE =     0           MULTIPLICITY =     0     -
 -                                                                             -
 -                 ATOM INDEX                              ATOM NAME           -
 -                 ----------                              ---------           -
 -                      1                                   C                  -
 -                      2                                   C                  -
 -                      3                                   C                  -
 -                      4                                   C                  -
 -                      5                                   C                  -
 -                      6                                   C                  -
 -                      7                                   C                  -
 -                      8                                   C                  -
 -                      9                                   C                  -
 -                     10                                   C                  -
 -                     11                                   C                  -
 -                     12                                   C                  -
 -                     13                                   C                  -
 -                     14                                   C                  -
 -                     15                                   C                  -
 -                     16                                   C                  -
 -                     17                                   C                  -
 -                     18                                   C                  -
 -                     19                                   C                  -
 -                     20                                   C                  -
 -                     21                                   C                  -
 -                     22                                   C                  -
 -                     23                                   C                  -
 -                     24                                   C                  -
 -                     25                                   C                  -
 -                     26                                   C                  -
 -                     27                                   C                  -
 -                     28                                   C                  -
 -                     29                                   C                  -
 -                     30                                   C                  -
 -                     31                                   C                  -
 -                     32                                   C                  -
 -                     33                                   C                  -
 -                     34                                   C                  -
 -                     35                                   C                  -
 -                     36                                   C                  -
 -                     37                                   C                  -
 -                     38                                   C                  -
 -                     39                                   C                  -
 -                     40                                   C                  -
 -                     41                                   C                  -
 -                     42                                   C                  -
 -                     43                                   C                  -
 -                     44                                   C                  -
 -                     45                                   C                  -
 -                     46                                   C                  -
 -                     47                                   C                  -
 -                     48                                   C                  -
 -                     49                                   C                  -
 -                     50                                   C                  -
 -                     51                                   C                  -
 -                     52                                   C                  -
 -                     53                                   C                  -
 -                     54                                   C                  -
 -                     55                                   C                  -
 -                     56                                   C                  -
 -                     57                                   C                  -
 -                     58                                   C                  -
 -                     59                                   C                  -
 -                     60                                   C                  -
 -                     61                                   C                  -
 -                     62                                   C                  -
 -                     63                                   C                  -
 -                     64                                   C                  -
 -                     65                                   C                  -
 -                     66                                   C                  -
 -                     67                                   C                  -
 -                     68                                   C                  -
 -                     69                                   C                  -
 -                     70                                   C                  -
 -                     71                                   C                  -
 -                     72                                   C                  -
 -                     73                                   C                  -
 -                     74                                   C                  -
 -                     75                                   C                  -
 -                     76                                   C                  -
 -                     77                                   C                  -
 -                     78                                   C                  -
 -                     79                                   C                  -
 -                     80                                   C                  -
 -                     81                                   C                  -
 -                     82                                   C                  -
 -                     83                                   C                  -
 -                     84                                   C                  -
 -                     85                                   C                  -
 -                     86                                   C                  -
 -                     87                                   C                  -
 -                     88                                   C                  -
 -                     89                                   C                  -
 -                     90                                   C                  -
 -                     91                                   C                  -
 -                     92                                   C                  -
 -                     93                                   C                  -
 -                     94                                   C                  -
 -                     95                                   C                  -
 -                     96                                   C                  -
 -                     97                                   C                  -
 -                     98                                   C                  -
 -                     99                                   C                  -
 -                    100                                   C                  -
 -                    101                                   C                  -
 -                    102                                   C                  -
 -                    103                                   C                  -
 -                    104                                   C                  -
 -                    105                                   C                  -
 -                    106                                   C                  -
 -                    107                                   C                  -
 -                    108                                   C                  -
 -                    109                                   C                  -
 -                    110                                   C                  -
 -                    111                                   C                  -
 -                    112                                   C                  -
 -                    113                                   C                  -
 -                    114                                   C                  -
 -                    115                                   C                  -
 -                    116                                   C                  -
 -                    117                                   C                  -
 -                    118                                   C                  -
 -                    119                                   C                  -
 -                    120                                   C                  -
 -                    121                                   C                  -
 -                    122                                   C                  -
 -                    123                                   C                  -
 -                    124                                   C                  -
 -                    125                                   C                  -
 -                    126                                   C                  -
 -                    127                                   C                  -
 -                    128                                   C                  -
 -                    129                                   C                  -
 -                    130                                   C                  -
 -                    131                                   C                  -
 -                    132                                   C                  -
 -                    133                                   C                  -
 -                    134                                   C                  -
 -                    135                                   C                  -
 -                    136                                   C                  -
 -                    137                                   C                  -
 -                    138                                   C                  -
 -                    139                                   C                  -
 -                    140                                   C                  -
 -                    141                                   C                  -
 -                    142                                   C                  -
 -                    143                                   C                  -
 -                    144                                   C                  -
 -                    145                                   C                  -
 -                    146                                   C                  -
 -                    147                                   C                  -
 -                    148                                   C                  -
 -                    149                                   C                  -
 -                    150                                   C                  -
 -                    151                                   C                  -
 -                    152                                   C                  -
 -                    153                                   C                  -
 -                    154                                   C                  -
 -                    155                                   C                  -
 -                    156                                   C                  -
 -                    157                                   C                  -
 -                    158                                   C                  -
 -                    159                                   C                  -
 -                    160                                   C                  -
 -                    161                                   C                  -
 -                    162                                   C                  -
 -                    163                                   C                  -
 -                    164                                   C                  -
 -                    165                                   C                  -
 -                    166                                   C                  -
 -                    167                                   C                  -
 -                    168                                   C                  -
 -                    169                                   C                  -
 -                    170                                   C                  -
 -                    171                                   C                  -
 -                    172                                   C                  -
 -                    173                                   C                  -
 -                    174                                   C                  -
 -                    175                                   C                  -
 -                    176                                   C                  -
 -                    177                                   C                  -
 -                    178                                   C                  -
 -                    179                                   C                  -
 -                    180                                   C                  -
 -                    181                                   C                  -
 -                    182                                   C                  -
 -                    183                                   C                  -
 -                    184                                   C                  -
 -                    185                                   C                  -
 -                    186                                   C                  -
 -                    187                                   C                  -
 -                    188                                   C                  -
 -                    189                                   C                  -
 -                    190                                   C                  -
 -                    191                                   C                  -
 -                    192                                   C                  -
 -                    193                                   Na_ghost           -
 -------------------------------------------------------------------------------

 *******************************************************************************
 *******************************************************************************
 **                                                                           **
 **     #####                         ##              ##                      **
 **    ##   ##            ##          ##              ##                      **
 **   ##     ##                       ##            ######                    **
 **   ##     ##  ##   ##  ##   #####  ##  ##   ####   ##    #####    #####    **
 **   ##     ##  ##   ##  ##  ##      ## ##   ##      ##   ##   ##  ##   ##   **
 **   ##  ## ##  ##   ##  ##  ##      ####     ###    ##   ######   ######    **
 **    ##  ###   ##   ##  ##  ##      ## ##      ##   ##   ##       ##        **
 **     #######   #####   ##   #####  ##  ##  ####    ##    #####   ##        **
 **           ##                                                    ##        **
 **                                                                           **
 **                                                ... make the atoms dance   **
 **                                                                           **
 **            Copyright (C) by CP2K developers group (2000-2022)             **
 **                      J. Chem. Phys. 152, 194103 (2020)                    **
 **                                                                           **
 *******************************************************************************


 TOTAL NUMBERS AND MAXIMUM NUMBERS

  Total number of            - Atomic kinds:                                   2
                             - Atoms:                                        193
                             - Shell sets:                                   193
                             - Shells:                                       965
                             - Primitive Cartesian functions:                967
                             - Cartesian basis functions:                   2697
                             - Spherical basis functions:                   2505

  Maximum angular momentum of- Orbital basis functions:                        2
                             - Local part of the GTH pseudopotential:          2
                             - Non-local part of the GTH pseudopotential:      0


 SCF PARAMETERS         Density guess:                                    ATOMIC
                        --------------------------------------------------------
                        max_scf:                                             300
                        max_scf_history:                                       0
                        max_diis:                                              4
                        --------------------------------------------------------
                        eps_scf:                                        3.00E-07
                        eps_scf_history:                                0.00E+00
                        eps_diis:                                       1.00E-01
                        eps_eigval:                                     1.00E-05
                        --------------------------------------------------------
                        level_shift [a.u.]:                             0.000000
                        added MOs                                       100    0
                        --------------------------------------------------------
                        Mixing method:                            BROYDEN_MIXING
                                                charge density mixing in g-space
                        --------------------------------------------------------
                        Smear method:                                FERMI_DIRAC
                        Electronic temperature [K]:                        300.0
                        Electronic temperature [a.u.]:                  9.50E-04
                        Accuracy threshold:                             1.00E-10
                        --------------------------------------------------------
                        Outer loop SCF in use 
                        No variables optimised in outer loop
                        eps_scf                                         1.00E-06
                        max_scf                                              300
                        DIIS optimization
                        DIIS buffer length                                     3
                        step_size                                       5.00E-01

 Number of electrons:                                                        768
 Number of occupied orbitals:                                                384
 Number of molecular orbitals:                                               484

 Number of orbital functions:                                               2505
 Number of independent orbital functions:                                   2505

 Extrapolation method: initial_guess


 SCF WAVEFUNCTION OPTIMIZATION

  Step     Update method      Time    Convergence         Total energy    Change
  ------------------------------------------------------------------------------
     1 NoMix/Diag. 0.10E+00  145.1     0.92593366     -1085.8868106577 -1.09E+03
     2 Broy./Diag. 0.10E+00  151.0     0.00229532     -1044.4130718470  4.15E+01
     3 Broy./Diag. 0.10E+00  156.6     0.02555499     -1076.5019986623 -3.21E+01
     4 Broy./Diag. 0.10E+00  156.2     0.00039605     -1090.1711591456 -1.37E+01
     5 Broy./Diag. 0.10E+00  153.8     0.00297055     -1090.7556525468 -5.84E-01
     6 Broy./Diag. 0.10E+00  153.2     0.00011850     -1091.9321408959 -1.18E+00
     7 Broy./Diag. 0.10E+00  172.1     0.00106845     -1092.4527227927 -5.21E-01
     8 Broy./Diag. 0.10E+00  164.4     0.00005307     -1092.8174863851 -3.65E-01
     9 Broy./Diag. 0.10E+00  159.1     0.00082450     -1092.9915999892 -1.74E-01
    10 Broy./Diag. 0.10E+00  137.3     0.00005642     -1093.2121006783 -2.21E-01
    11 Broy./Diag. 0.10E+00  173.6     0.00092786     -1093.1694957131  4.26E-02
    12 Broy./Diag. 0.10E+00  150.5     0.00002872     -1093.2484355513 -7.89E-02
    13 Broy./Diag. 0.10E+00  177.1     0.00065543     -1093.2823855827 -3.40E-02
    14 Broy./Diag. 0.10E+00  162.6     0.00005712     -1093.3210134666 -3.86E-02
    15 Broy./Diag. 0.10E+00  146.2     0.00043950     -1093.3592358421 -3.82E-02
    16 Broy./Diag. 0.10E+00  125.9     0.00005604     -1093.3774165543 -1.82E-02
    17 Broy./Diag. 0.10E+00  155.3     0.00008107     -1093.3571657897  2.03E-02
    18 Broy./Diag. 0.10E+00  175.1     0.00002015     -1093.3463860516  1.08E-02
    19 Broy./Diag. 0.10E+00  156.7     0.00002061     -1093.3435402844  2.85E-03
    20 Broy./Diag. 0.10E+00  139.8     0.00000942     -1093.3454398215 -1.90E-03
    21 Broy./Diag. 0.10E+00  146.5     0.00001913     -1093.3460229258 -5.83E-04
    22 Broy./Diag. 0.10E+00  156.7     0.00002147     -1093.3507606993 -4.74E-03
    23 Broy./Diag. 0.10E+00  156.1     0.00000875     -1093.3544815314 -3.72E-03
    24 Broy./Diag. 0.10E+00  155.2     0.00006533     -1093.3533763921  1.11E-03
    25 Broy./Diag. 0.10E+00  149.0     0.00000936     -1093.3547843646 -1.41E-03
    26 Broy./Diag. 0.10E+00  160.2     0.00004685     -1093.3554978947 -7.14E-04
    27 Broy./Diag. 0.10E+00  147.0     0.00001069     -1093.3591155990 -3.62E-03
    28 Broy./Diag. 0.10E+00  153.3     0.00001079     -1093.3621809973 -3.07E-03
    29 Broy./Diag. 0.10E+00  171.7     0.00000932     -1093.3640420091 -1.86E-03
    30 Broy./Diag. 0.10E+00  153.5     0.00000295     -1093.3645831618 -5.41E-04
    31 Broy./Diag. 0.10E+00  159.4     0.00001519     -1093.3646530580 -6.99E-05
    32 Broy./Diag. 0.10E+00  167.3     0.00000213     -1093.3665630908 -1.91E-03
    33 Broy./Diag. 0.10E+00  143.2     0.00000585     -1093.3660541259  5.09E-04
    34 Broy./Diag. 0.10E+00  144.1     0.00000881     -1093.3670713464 -1.02E-03
    35 Broy./Diag. 0.10E+00  167.7     0.00000559     -1093.3684263275 -1.35E-03
    36 Broy./Diag. 0.10E+00  144.9     0.00001710     -1093.3691194403 -6.93E-04
    37 Broy./Diag. 0.10E+00  136.0     0.00000546     -1093.3690491930  7.02E-05
    38 Broy./Diag. 0.10E+00  176.6     0.00001279     -1093.3684899864  5.59E-04
    39 Broy./Diag. 0.10E+00  151.0     0.00000437     -1093.3692573048 -7.67E-04
    40 Broy./Diag. 0.10E+00  160.4     0.00000657     -1093.3702271025 -9.70E-04
    41 Broy./Diag. 0.10E+00  159.0     0.00000179     -1093.3708717806 -6.45E-04
    42 Broy./Diag. 0.10E+00  155.4     0.00000100     -1093.3709936639 -1.22E-04
    43 Broy./Diag. 0.10E+00  134.0     0.00000256     -1093.3712625170 -2.69E-04
    44 Broy./Diag. 0.10E+00  166.2     0.00000232     -1093.3713067861 -4.43E-05
    45 Broy./Diag. 0.10E+00  180.9     0.00000201     -1093.3710680006  2.39E-04
    46 Broy./Diag. 0.10E+00  141.2     0.00000307     -1093.3711442259 -7.62E-05
    47 Broy./Diag. 0.10E+00  134.2     0.00000227     -1093.3712718118 -1.28E-04
    48 Broy./Diag. 0.10E+00  150.2     0.00000175     -1093.3714499579 -1.78E-04
    49 Broy./Diag. 0.10E+00  143.6     0.00000089     -1093.3714953578 -4.54E-05
    50 Broy./Diag. 0.10E+00  169.9     0.00000161     -1093.3714603303  3.50E-05
    51 Broy./Diag. 0.10E+00  156.3     0.00000041     -1093.3714508865  9.44E-06
    52 Broy./Diag. 0.10E+00  173.2     0.00000076     -1093.3714875181 -3.66E-05
    53 Broy./Diag. 0.10E+00  166.5     0.00000096     -1093.3715449796 -5.75E-05
    54 Broy./Diag. 0.10E+00  160.0     0.00000047     -1093.3716188079 -7.38E-05
    55 Broy./Diag. 0.10E+00  166.0     0.00000068     -1093.3717572657 -1.38E-04
    56 Broy./Diag. 0.10E+00  154.0     0.00000067     -1093.3718358198 -7.86E-05
    57 Broy./Diag. 0.10E+00  139.9     0.00000119     -1093.3718571018 -2.13E-05
    58 Broy./Diag. 0.10E+00  139.8     0.00000034     -1093.3718629058 -5.80E-06
    59 Broy./Diag. 0.10E+00  176.3     0.00000049     -1093.3718625678  3.38E-07
    60 Broy./Diag. 0.10E+00  155.8     0.00000046     -1093.3718841781 -2.16E-05
    61 Broy./Diag. 0.10E+00  159.5     0.00000012     -1093.3718983646 -1.42E-05

  *** SCF run converged in    61 steps ***


  Electronic density on regular grids:       -767.9999999990        0.0000000010
  Core density on regular grids:              767.9999999993       -0.0000000007
  Total charge density on r-space grids:        0.0000000003
  Total charge density g-space grids:           0.0000000003

  Overlap energy of the core charge distribution:               0.00002995778927
  Self energy of the core charge distribution:              -2560.32152193892080
  Core Hamiltonian energy:                                    800.99023193335142
  Hartree energy:                                            1001.38486449875643
  Exchange-correlation energy:                               -335.17904203112926
  Dispersion energy:                                           -0.24646061159078
  Electronic entropic energy:                                  -0.00000017281944
  Fermi energy:                                                -0.10925656622769

  Total energy:                                             -1093.37189836456332

  outer SCF iter =    1 RMS gradient =   0.12E-06 energy =      -1093.3718983646
  outer SCF loop converged in   1 iterations or   61 steps


 *** WARNING in qs_loc_utils.F:1500 :: User requested the calculation of ***
 *** the localized wavefunction but the section LOCALIZE was not         ***
 *** specified. Localization will not be performed!                      ***


 -------------------------------------------------------------------------------
 -                                                                             -
 -  BSSE CALCULATION         FRAGMENT CONF: 11        FRAGMENT SUBCONF: 01     -
 -                           CHARGE =     0           MULTIPLICITY =     0     -
 -                                                                             -
 -                 ATOM INDEX                              ATOM NAME           -
 -                 ----------                              ---------           -
 -                      1                                   C_ghost            -
 -                      2                                   C_ghost            -
 -                      3                                   C_ghost            -
 -                      4                                   C_ghost            -
 -                      5                                   C_ghost            -
 -                      6                                   C_ghost            -
 -                      7                                   C_ghost            -
 -                      8                                   C_ghost            -
 -                      9                                   C_ghost            -
 -                     10                                   C_ghost            -
 -                     11                                   C_ghost            -
 -                     12                                   C_ghost            -
 -                     13                                   C_ghost            -
 -                     14                                   C_ghost            -
 -                     15                                   C_ghost            -
 -                     16                                   C_ghost            -
 -                     17                                   C_ghost            -
 -                     18                                   C_ghost            -
 -                     19                                   C_ghost            -
 -                     20                                   C_ghost            -
 -                     21                                   C_ghost            -
 -                     22                                   C_ghost            -
 -                     23                                   C_ghost            -
 -                     24                                   C_ghost            -
 -                     25                                   C_ghost            -
 -                     26                                   C_ghost            -
 -                     27                                   C_ghost            -
 -                     28                                   C_ghost            -
 -                     29                                   C_ghost            -
 -                     30                                   C_ghost            -
 -                     31                                   C_ghost            -
 -                     32                                   C_ghost            -
 -                     33                                   C_ghost            -
 -                     34                                   C_ghost            -
 -                     35                                   C_ghost            -
 -                     36                                   C_ghost            -
 -                     37                                   C_ghost            -
 -                     38                                   C_ghost            -
 -                     39                                   C_ghost            -
 -                     40                                   C_ghost            -
 -                     41                                   C_ghost            -
 -                     42                                   C_ghost            -
 -                     43                                   C_ghost            -
[...]
    21 Broy./Diag. 0.10E+00    8.1     0.00015003     -1140.5746171725 -2.20E-02
    22 Broy./Diag. 0.10E+00    8.1     0.00019334     -1140.5712616568  3.36E-03
    23 Broy./Diag. 0.10E+00    8.1     0.00005626     -1140.5674776640  3.78E-03
    24 Broy./Diag. 0.10E+00    8.1     0.00011974     -1140.5684246177 -9.47E-04
    25 Broy./Diag. 0.10E+00    8.1     0.00009050     -1140.5720983070 -3.67E-03
    26 Broy./Diag. 0.10E+00    8.1     0.00010807     -1140.5774615302 -5.36E-03
    27 Broy./Diag. 0.10E+00    8.1     0.00003546     -1140.5779003911 -4.39E-04
    28 Broy./Diag. 0.10E+00    8.1     0.00012149     -1140.5759777113  1.92E-03
    29 Broy./Diag. 0.10E+00    8.1     0.00012026     -1140.5753817598  5.96E-04
    30 Broy./Diag. 0.10E+00    8.1     0.00009171     -1140.5757030172 -3.21E-04
    31 Broy./Diag. 0.10E+00    8.1     0.00001453     -1140.5759681564 -2.65E-04
    32 Broy./Diag. 0.10E+00    8.1     0.00000978     -1140.5756811182  2.87E-04
    33 Broy./Diag. 0.10E+00    8.1     0.00001202     -1140.5758705227 -1.89E-04
    34 Broy./Diag. 0.10E+00   11.6     0.00002873     -1140.5766328669 -7.62E-04
    35 Broy./Diag. 0.10E+00    7.2     0.00000497     -1140.5770491868 -4.16E-04
    36 Broy./Diag. 0.10E+00    4.6     0.00001030     -1140.5770922019 -4.30E-05
    37 Broy./Diag. 0.10E+00    4.6     0.00001378     -1140.5772265181 -1.34E-04
    38 Broy./Diag. 0.10E+00    4.6     0.00000441     -1140.5776487969 -4.22E-04
    39 Broy./Diag. 0.10E+00    4.6     0.00000843     -1140.5773792319  2.70E-04
    40 Broy./Diag. 0.10E+00    4.6     0.00000248     -1140.5772413258  1.38E-04
    41 Broy./Diag. 0.10E+00    4.6     0.00000652     -1140.5772424323 -1.11E-06
    42 Broy./Diag. 0.10E+00    4.6     0.00000176     -1140.5772375202  4.91E-06
    43 Broy./Diag. 0.10E+00    4.6     0.00000379     -1140.5772962590 -5.87E-05
    44 Broy./Diag. 0.10E+00    4.6     0.00000099     -1140.5772884905  7.77E-06
    45 Broy./Diag. 0.10E+00    4.6     0.00000175     -1140.5772758966  1.26E-05
    46 Broy./Diag. 0.10E+00    4.6     0.00000133     -1140.5772726881  3.21E-06
    47 Broy./Diag. 0.10E+00    4.6     0.00000031     -1140.5772801416 -7.45E-06
    48 Broy./Diag. 0.10E+00    4.6     0.00000049     -1140.5772934663 -1.33E-05
    49 Broy./Diag. 0.10E+00    4.6     0.00000023     -1140.5773071301 -1.37E-05

  *** SCF run converged in    49 steps ***


  Electronic density on regular grids:       -777.0004002315       -0.0004002315
  Core density on regular grids:              776.9999999993       -0.0000000007
  Total charge density on r-space grids:       -0.0004002322
  Total charge density g-space grids:          -0.0004002322

  Overlap energy of the core charge distribution:               0.00002995778927
  Self energy of the core charge distribution:              -2656.92801213334678
  Core Hamiltonian energy:                                    831.18465964213772
  Hartree energy:                                            1027.89425523195905
  Exchange-correlation energy:                               -342.47615642095064
  Dispersion energy:                                           -0.24995712326950
  Electronic entropic energy:                                  -0.00212628444168
  Fermi energy:                                                -0.08725243619787

  Total energy:                                             -1140.57730713006254

  outer SCF iter =    1 RMS gradient =   0.23E-06 energy =      -1140.5773071301
  outer SCF loop converged in   1 iterations or   49 steps


 *** WARNING in qs_loc_utils.F:1500 :: User requested the calculation of ***
 *** the localized wavefunction but the section LOCALIZE was not         ***
 *** specified. Localization will not be performed!                      ***


 -------------------------------------------------------------------------------
 -                                                                             -
 -                                 BSSE RESULTS                                -
 -                                                                             -
 -                 CP-corrected Total energy:    -1140.575834                  -
 -                                                                             -
 -                       1-body contribution:    -1093.370952                  -
 -                       1-body contribution:      -47.167176                  -
 -                                                                             -
 -                       2-body contribution:       -0.037706                  -
 -                 BSSE-free interaction energy:       -0.037706               -
 -------------------------------------------------------------------------------

 -------------------------------------------------------------------------------
 -                                                                             -
 -                                DBCSR STATISTICS                             -
 -                                                                             -
 -------------------------------------------------------------------------------
 COUNTER                                    TOTAL       BLAS       SMM       ACC
 flops     9 x     9 x     9                90396     100.0%      0.0%      0.0%
 flops     9 x     9 x    32               559872     100.0%      0.0%      0.0%
 flops     9 x     9 x   105               833490     100.0%      0.0%      0.0%
 flops     9 x     9 x   100               988200     100.0%      0.0%      0.0%
 flops    13 x     9 x     9              4776408     100.0%      0.0%      0.0%
 flops     9 x    13 x     9              4928040     100.0%      0.0%      0.0%
 flops     9 x     9 x   128              6842880     100.0%      0.0%      0.0%
 flops    13 x     9 x    32             50948352     100.0%      0.0%      0.0%
 flops     9 x    13 x    32             52565760     100.0%      0.0%      0.0%
 flops    13 x     9 x   105             75847590     100.0%      0.0%      0.0%
 flops     9 x    13 x   105             78255450     100.0%      0.0%      0.0%
 flops    13 x     9 x   100             89926200     100.0%      0.0%      0.0%
 flops     9 x    13 x   100             92781000     100.0%      0.0%      0.0%
 flops    13 x     9 x   128            622702080     100.0%      0.0%      0.0%
 flops     9 x    13 x   128            642470400     100.0%      0.0%      0.0%
 flops    13 x    13 x     9           1257635808     100.0%      0.0%      0.0%
 flops    13 x    13 x    32          13414781952     100.0%      0.0%      0.0%
 flops    13 x    13 x   105          19970790840     100.0%      0.0%      0.0%
 flops    13 x    13 x   100          47355422400     100.0%      0.0%      0.0%
 flops    13 x    13 x   128         254880857088     100.0%      0.0%      0.0%
 flops inhomo. stacks                           0       0.0%      0.0%      0.0%
 flops total                       338.604004E+09     100.0%      0.0%      0.0%
 flops max/rank                     21.988241E+09     100.0%      0.0%      0.0%
 matmuls inhomo. stacks                         0       0.0%      0.0%      0.0%
 matmuls total                            9584114     100.0%      0.0%      0.0%
 number of processed stacks                 17946     100.0%      0.0%      0.0%
 average stack size                                   534.1       0.0       0.0
 marketing flops                   836.323312E+09
 -------------------------------------------------------------------------------
 # multiplications                            233
 max memory usage/rank             869.855232E+06
 # max total images/rank                        1
 # max 3D layers                                1
 # MPI messages exchanged                   22368
 MPI messages size (bytes):
  total size                        10.422852E+09
  min size                           0.000000E+00
  max size                         648.192000E+03
  average size                     465.971562E+03
 MPI breakdown and total messages size (bytes):
             size <=      128                2340                        0
       128 < size <=     8192                 156                   101088
      8192 < size <=    32768                   0                        0
     32768 < size <=   131072                 864                 38957760
    131072 < size <=  4194304               19008              10383797232
   4194304 < size <= 16777216                   0                        0
  16777216 < size                               0                        0
 -------------------------------------------------------------------------------
 -                                                                             -
 -                      DBCSR MESSAGE PASSING PERFORMANCE                      -
 -                                                                             -
 -------------------------------------------------------------------------------
 ROUTINE             CALLS      AVE VOLUME [Bytes]
 MP_Bcast               21                     12.
 MP_Allreduce         1695                      9.
 MP_Alltoall          6584                 486131.
 MP_ISend             3728                 187879.
 MP_IRecv             3728                 173344.
 -------------------------------------------------------------------------------

 -------------------------------------------------------------------------------
 -                                                                             -
 -                                DBM STATISTICS                               -
 -                                                                             -
 -------------------------------------------------------------------------------
    M  x    N  x    K                                          COUNT     PERCENT
 -------------------------------------------------------------------------------

 -------------------------------------------------------------------------------
 -                                                                             -
 -                                GRID STATISTICS                              -
 -                                                                             -
 -------------------------------------------------------------------------------
 LP    KERNEL             BACKEND                              COUNT     PERCENT
 4     collocate ortho    REF                               24329988      50.05%
 4     integrate ortho    REF                               23868756      49.10%
 3     collocate ortho    REF                                 195041       0.40%
 3     integrate ortho    REF                                 191114       0.39%
 0     collocate general  REF                                   9264       0.02%
 2     collocate ortho    REF                                   8976       0.02%
 2     integrate ortho    REF                                   8772       0.02%
 -------------------------------------------------------------------------------

 MEMORY| Estimated peak process memory [MiB]                                 830

 -------------------------------------------------------------------------------
 -                                                                             -
 -                         MESSAGE PASSING PERFORMANCE                         -
 -                                                                             -
 -------------------------------------------------------------------------------

 ROUTINE             CALLS      AVE VOLUME [Bytes]
 MP_Group               24
 MP_Bcast              619                1560794.
 MP_Allreduce         3240                   1499.
 MP_Sync               283
 MP_Alltoall          3129               23500953.
 MP_SendRecv          9936                 213435.
 MP_ISendRecv         6990                 161680.
 MP_Wait             17407
 MP_comm_split          26
 MP_ISend             7576                1392733.
 MP_IRecv             7576                1392713.
 MP_Recv               175                 622402.
 -------------------------------------------------------------------------------


 -------------------------------------------------------------------------------
 -                                                                             -
 -                           R E F E R E N C E S                               -
 -                                                                             -
 -------------------------------------------------------------------------------
 
 CP2K version 2023.1, the CP2K developers group (2023).
 CP2K is freely available from https://www.cp2k.org/ .

 Kuehne,Thomas D.; Iannuzzi,Marcella; Del Ben,Mauro;
 Rybkin,Vladimir V.; Seewald,Patrick; Stein,Frederick; Laino,Teodoro;
 Khaliullin,Rustam Z.; Schuett,Ole; Schiffmann,Florian; Golze,Dorothea;
 Wilhelm,Jan; Chulkov,Sergey; Bani-Hashemian,Mohammad Hossein;
 Weber,Valery; Borstnik,Urban; Taillefumier,Mathieu;
 Jakobovits,Alice Shoshana; Lazzaro,Alfio; Pabst,Hans; Mueller,Tiziano;
 Schade,Robert; Guidon,Manuel; Andermatt,Samuel; Holmberg,Nico;
 Schenter,Gregory K.; Hehn,Anna; Bussy,Augustin; Belleflamme,Fabian;
 Tabacchi,Gloria; Gloess,Andreas; Lass,Michael; Bethune,Iain;
 Mundy,Christopher J.; Plessl,Christian; Watkins,Matt;
 VandeVondele,Joost; Krack,Matthias; Hutter,Juerg. 
 The Journal of Chemical Physics, 152 (19), (2020). 
 CP2K: An electronic structure and molecular dynamics software package -
 Quickstep: Efficient and accurate electronic structure calculations.
 https://doi.org/10.1063/5.0007045

 Goerigk, Lars; Hansen, Andreas; Bauer, Christoph; Ehrlich, Stephan;
 Najibi, Asim; Grimme, Stefan. , 19 (48), (2017). 
 A look at the density functional theory zoo with the advanced GMTKN55 database
 for general main group thermochemistry, kinetics and noncovalent interactions.
 https://doi.org/10.1039/C7CP04913G

 Schuett, Ole; Messmer, Peter; Hutter, Juerg; VandeVondele, Joost. 
 Electronic Structure Calculations on Graphics Processing Units, John
 Wiley & Sons, Ltd, 173-190 (2016). 
 GPU-Accelerated Sparse Matrix-Matrix Multiplication for
 Linear Scaling Density Functional Theory.
 https://doi.org/10.1002/9781118670712.ch8

 Borstnik, U; VandeVondele, J; Weber, V; Hutter, J. 
 PARALLEL COMPUTING, 40 (5-6), 47-58 (2014). 
 Sparse matrix multiplication: The distributed block-compressed sparse
 row library.
 https://doi.org/10.1016/j.parco.2014.03.012

 Hutter, J; Iannuzzi, M; Schiffmann, F; VandeVondele, J. 
 WIREs Comput Mol Sci., 4 (1), 15-25 (2014). 
 CP2K: atomistic simulations of condensed matter systems.
 https://doi.org/10.1002/wcms.1159

 Marek, A; Blum, V; Johanni, R; Havu, V; Lang, B; Auckenthaler, T;
 Heinecke, A; Bungartz, H; Lederer, H. 
 Journal of Physics: Condensed Matter, 26 (21), (2014). 
 The ELPA library: scalable parallel eigenvalue solutions for
 electronic structure
 theory and computational science.
 https://doi.org/10.1088/0953-8984/26/21/213201

 Grimme, S; Ehrlich, S; Goerigk, L. 
 JOURNAL OF COMPUTATIONAL CHEMISTRY, 32, 1456 (2011). 
 Effect of the damping function in dispersion corrected density functional theory.
 https://doi.org/10.1002/jcc.21759

 Grimme, S; Antony, J; Ehrlich, S; Krieg, H. 
 JOURNAL OF CHEMICAL PHYSICS, 132 (15), 154104 (2010). 
 A consistent and accurate ab initio parametrization of density
 functional dispersion correction (DFT-D) for the 94 elements H-Pu.
 https://doi.org/10.1063/1.3382344

 VandeVondele, J; Hutter, J. 
 JOURNAL OF CHEMICAL PHYSICS, 127 (11), 114105 (2007). 
 Gaussian basis sets for accurate calculations on molecular systems in
 gas and condensed phases.
 https://doi.org/10.1063/1.2770708

 Krack, M. 
 THEORETICAL CHEMISTRY ACCOUNTS, 114 (1-3), 145-152 (2005). 
 Pseudopotentials for H to Kr optimized for gradient-corrected
 exchange-correlation functionals.
 https://doi.org/10.1007/s00214-005-0655-y

 VandeVondele, J; Krack, M; Mohamed, F; Parrinello, M; Chassaing, T;
 Hutter, J. COMPUTER PHYSICS COMMUNICATIONS, 167 (2), 103-128 (2005). 
 QUICKSTEP: Fast and accurate density functional calculations using a
 mixed Gaussian and plane waves approach.
 https://doi.org/10.1016/j.cpc.2004.12.014

 Frigo, M; Johnson, SG. 
 PROCEEDINGS OF THE IEEE, 93 (2), 216-231 (2005). 
 The design and implementation of FFTW3.
 https://doi.org/10.1109/JPROC.2004.840301

 Hartwigsen, C; Goedecker, S; Hutter, J. 
 PHYSICAL REVIEW B, 58 (7), 3641-3662 (1998). 
 Relativistic separable dual-space Gaussian pseudopotentials from H to Rn.
 https://doi.org/10.1103/PhysRevB.58.3641

 Lippert, G; Hutter, J; Parrinello, M. 
 MOLECULAR PHYSICS, 92 (3), 477-487 (1997). 
 A hybrid Gaussian and plane wave density functional scheme.
 https://doi.org/10.1080/002689797170220

 Perdew, JP; Burke, K; Ernzerhof, M. 
 PHYSICAL REVIEW LETTERS, 77 (18), 3865-3868 (1996). 
 Generalized gradient approximation made simple.
 https://doi.org/10.1103/PhysRevLett.77.3865

 Goedecker, S; Teter, M; Hutter, J. 
 PHYSICAL REVIEW B, 54 (3), 1703-1710 (1996). 
 Separable dual-space Gaussian pseudopotentials.
 https://doi.org/10.1103/PhysRevB.54.1703


 -------------------------------------------------------------------------------
 -                                                                             -
 -                                T I M I N G                                  -
 -                                                                             -
 -------------------------------------------------------------------------------
 SUBROUTINE                       CALLS  ASD         SELF TIME        TOTAL TIME
                                MAXIMUM       AVERAGE  MAXIMUM  AVERAGE  MAXIMUM
 CP2K                                 1  1.0     3.40     3.49 22564.42 22564.43
 qs_energies                          5  2.0     0.00     0.00 22533.92 22534.20
 scf_env_do_scf                       5  3.0     0.00     0.00 22484.50 22484.84
 scf_env_do_scf_inner_loop          233  4.0     0.01     0.03 22484.50 22484.84
 qs_scf_new_mos                     233  5.0     0.01     0.02 20932.02 20932.57
 eigensolver                        233  6.0     0.03     0.03 20655.41 20657.86
 cp_fm_diag_elpa                    207  7.0     0.00     0.00 19188.16 19191.79
 cp_fm_diag_elpa_base               207  8.0 19176.36 19179.50 19180.76 19181.47
 cp_fm_triangular_multiply          699  7.0  1408.35  1415.00  1408.35  1415.00
 qs_ks_update_qs_env                233  5.0     0.00     0.00   761.10   763.06
 rebuild_ks_matrix                  233  6.0     0.00     0.00   750.66   752.67
 qs_ks_build_kohn_sham_matrix       233  7.0     0.07     0.09   750.66   752.67
 qs_rho_update_rho_low              238  5.0     0.00     0.00   622.53   623.34
 calculate_rho_elec                 238  6.0     1.39     1.69   622.52   623.34
 rs_pw_transfer                    1889  9.5     0.04     0.08   457.28   574.58
 sum_up_and_integrate               233  8.0     2.01     2.16   544.26   546.25
 integrate_v_rspace                 233  9.0     0.01     0.03   542.25   544.09
 density_rs2pw                      238  7.0     0.02     0.07   415.31   532.27
 -------------------------------------------------------------------------------

 The number of warnings for this run is : 6
 
 -------------------------------------------------------------------------------
  **** **** ******  **  PROGRAM ENDED AT                 2025-06-15 04:55:50.397
 ***** ** ***  *** **   PROGRAM RAN ON                                sebnode133
 **    ****   ******    PROGRAM RAN BY                                    luehrs
 ***** **    ** ** **   PROGRAM PROCESS ID                               1807314
  **** **  *******  **  PROGRAM STOPPED IN /home/luehrs/PhD/Sodium_batteries/Sod
                                           ium-graphene-curvature/Sinus_surface/
                                           Sinus_2
