      89
 i =       23, E =      -515.9428595190
  C        -0.0507826219        0.0058499723       -0.0024600397
  C         4.2161789042       -7.4420161335        0.0016708837
  C         7.0693821944       -7.4474355207        0.0023741076
  C        -0.0660514341       -9.8992289866        0.0038365011
  C         4.9492690257        1.2029754861       -0.0256143625
  C         6.3818360214        1.2762706905        0.0128994341
  C         7.0316461796       -0.0603890291       -0.0044468549
  C         2.7914278730       -4.9685076471        0.0003150987
  C         1.9869862802      -11.0361671805        0.0032838003
  C         6.2617716433      -11.0473640012        0.0001013906
  C         2.7969383016       -7.4358611535        0.0015510474
  C         6.3555492624       -8.6822586660        0.0017029526
  C         4.2183401090       -4.9746542005        0.0001280251
  C         2.0820778865       -3.7249690159        0.0012141937
  C         6.3549708213       -6.2098434197        0.0017182028
  C         0.6555277107       -3.7186699416        0.0007199699
  C         5.0232017171      -11.0440861013        0.0003806189
  C         2.0837918092       -6.1940931948        0.0015774990
  C         4.9292143746       -6.2066740412        0.0010263795
  C         4.9309698213       -8.6798214257        0.0013635550
  C         6.3460892499       -1.2887457096       -0.0020561652
  C         4.9350290023       -1.2882548506        0.0052057232
  C         4.2748483571       -0.0015508416       -0.0018688190
  C         2.8497348930       -0.0231333246       -0.0030911095
  C         2.0280982789        1.1004568474       -0.0091825903
  C         0.7776096141        1.1317734996        0.0000275447
  C         0.7487367125      -11.0302627639        0.0033538269
  C        -0.0542914585       -4.9536488600        0.0015620606
  C         7.0829349008       -9.9205117128        0.0014387955
  C         0.6560591382       -6.1893640268        0.0018152227
  C        -0.0544332662       -7.4246454041        0.0030149787
  C         7.0605320184       -2.5184955307       -0.0010529967
  C         0.6597337566       -8.6640727032        0.0032163413
  C         2.0832658436       -8.6694105749        0.0027518802
  C         2.8080862164       -9.9103368248        0.0021312181
  C         4.2036854363       -9.9153869502        0.0011125188
  C        -0.0522985563       -2.4751713543       -0.0003463277
  C         7.0639122661       -4.9826539412        0.0013587341
  C         6.3501513101       -3.7503472424        0.0008070293
  C         4.9306357517       -3.7456361787        0.0009531684
  C         4.2220414633       -2.5012370968        0.0043599432
  C         2.7942049436       -2.4984496974        0.0042386440
  C         2.0990500055       -1.2514157512        0.0036013574
  C         0.6694742929       -1.2426067689       -0.0003182082
  C         8.4232498044       -0.0559934708       -0.0042048707
  C        12.7606715702       -7.4277395775        0.0019536881
  C        15.6106412599       -7.4236843261        0.0027816118
  C         8.4789234544       -9.9183102536        0.0022586331
  C        13.5507061752        1.1126381458       -0.0029208325
  C        14.7926816501        1.1231376605       -0.0016329810
  C        15.6279227574        0.0039270519       -0.0022006579
  C        11.3350868502       -4.9630611257        0.0008644176
  C        10.5409676596      -11.0388524260        0.0031269615
  C        14.8093779272      -11.0269260518        0.0026338443
  C        11.3406756379       -7.4339885211        0.0021691442
  C        14.8984600110       -8.6601342808        0.0030663137
  C        12.7617029334       -4.9555649599        0.0006987567
  C        10.6217924067       -3.7291124294       -0.0004122153
  C        14.8973711332       -6.1857630700        0.0020169438
  C         9.2003790603       -3.7451061987       -0.0002366643
  C        13.5708559857      -11.0291571096        0.0025883776
  C        10.6273868786       -6.1973936539        0.0016495545
  C        13.4721377458       -6.1883683844        0.0016729300
  C        13.4754747865       -8.6629911381        0.0023774236
  C        14.8894375353       -1.2351067573       -0.0016592414
  C        13.4566692158       -1.2375820061       -0.0006618890
  C        12.7057951807        0.0015267799       -0.0007322214
  C        11.2973605029        0.0100627526       -0.0001480405
  C        10.4936474712        1.1781761072        0.0032976862
  C         9.2407534359        1.0602434807        0.0021419143
  C         9.3024214487      -11.0431748761        0.0020685931
  C         8.4906876164       -4.9785653316        0.0011893344
  C        15.6247635543       -9.8983075281        0.0033525461
  C         9.2020882084       -6.2063447395        0.0023176984
  C         8.4890723005       -7.4445851955        0.0026753895
  C        15.6056872526       -2.4729813091       -0.0007536513
  C         9.2041144466       -8.6790158727        0.0030268033
  C        10.6280690932       -8.6721828826        0.0027007053
  C        11.3563748608       -9.9083983470        0.0028083432
  C        12.7514808761       -9.9028080996        0.0024242157
  C         8.4807561603       -2.5146655060       -0.0017678601
  C        15.6043683826       -4.9518331076        0.0011657836
  C        14.8939844508       -3.7127512728        0.0000988569
  C        13.4685276623       -3.7160557239        0.0004211673
  C        12.7505651519       -2.4774595170        0.0002761861
  C        11.3254679875       -2.4831238767       -0.0006508007
  C        10.6031313715       -1.2507140162       -0.0015459882
  C         9.1792791337       -1.2827588779       -0.0032642869
  O         7.1206596216        2.2934632604        0.0475853746
