 DBCSR| CPU Multiplication driver                                           BLAS (U)
 DBCSR| Multrec recursion limit                                              512 (U)
 DBCSR| Multiplication stack size                                           1000 (D)
 DBCSR| Maximum elements for images                                    UNLIMITED (U)
 DBCSR| Multiplicative factor virtual images                                   1 (U)
 DBCSR| Use multiplication densification                                       T (D)
 DBCSR| Multiplication size stacks                                             3 (U)
 DBCSR| Use memory pool for CPU allocation                                     F (U)
 DBCSR| Number of 3D layers                                               SINGLE (U)
 DBCSR| Use MPI memory allocation                                              F (U)
 DBCSR| Use RMA algorithm                                                      F (U)
 DBCSR| Use Communication thread                                               T (U)
 DBCSR| Communication thread load                                             87 (D)
 DBCSR| MPI: My process id                                                     0
 DBCSR| MPI: Number of processes                                              16
 DBCSR| OMP: Current number of threads                                         1
 DBCSR| OMP: Max number of threads                                             1
 DBCSR| Split modifier for TAS multiplication algorithm                  1.0E+00 (U)


  **** **** ******  **  PROGRAM STARTED AT               2025-06-24 12:35:45.500
 ***** ** ***  *** **   PROGRAM STARTED ON                            sebnode128
 **    ****   ******    PROGRAM STARTED BY                                luehrs
 ***** **    ** ** **   PROGRAM PROCESS ID                               1762205
  **** **  *******  **  PROGRAM STARTED IN /home/luehrs/PhD/Sodium_batteries/Sod
                                           ium-graphene-curvature/Sinus_surface2
                                           /Sinus7

 CP2K| version string:                                       CP2K version 2023.1
 CP2K| source code revision number:                                  git:b888bd8
 CP2K| cp2kflags: omp libint fftw3 libxc elpa parallel scalapack spglib         
 CP2K| is freely available from                            https://www.cp2k.org/
 CP2K| Program compiled at                          Tue Jan 10 19:52:03 UTC 2023
 CP2K| Program compiled on                                            x86-ubc-01
 CP2K| Program compiled for                                Linux-x86_64-gfortran
 CP2K| Data directory path                                       /usr/share/cp2k
 CP2K| Input file name                                        input.zig-zag1.inp

 GLOBAL| Force Environment number                                              1
 GLOBAL| Basis set file name                                      ./BASIS_MOLOPT
 GLOBAL| Potential file name                                    ./GTH_POTENTIALS
 GLOBAL| MM Potential file name                                     MM_POTENTIAL
 GLOBAL| Coordinate file name                               sinus2_7_relaxed.xyz
 GLOBAL| Method name                                                        CP2K
 GLOBAL| Project name                                graphene_sinus2_Sodium_BSSE
 GLOBAL| Run type                                                           BSSE
 GLOBAL| FFT library                                                       FFTW3
 GLOBAL| Diagonalization library                                            ELPA
 GLOBAL| DGEMM library                                                      BLAS
 GLOBAL| Minimum number of eigenvectors for ELPA usage                        16
 GLOBAL| Orthonormality check for eigenvectors                          DISABLED
 GLOBAL| Matrix multiplication library                                 ScaLAPACK
 GLOBAL| All-to-all communication in single precision                          F
 GLOBAL| FFTs using library dependent lengths                                  F
 GLOBAL| Grid backend                                                       AUTO
 GLOBAL| Global print level                                                  LOW
 GLOBAL| MPI I/O enabled                                                       T
 GLOBAL| Total number of message passing processes                            16
 GLOBAL| Number of threads for this process                                    1
 GLOBAL| This output is from process                                           0
 GLOBAL| Stack size for threads created by OpenMP (OMP_STACKSIZE)        default
 GLOBAL| CPU model name                          AMD EPYC 7513 32-Core Processor

 MEMORY| system memory details [Kb]
 MEMORY|                        rank 0           min           max       average
 MEMORY| MemTotal            131832292     131832292     131832292     131832292
 MEMORY| MemFree             111455372     111455372     111455372     111455372
 MEMORY| Buffers                373060        373060        373060        373060
 MEMORY| Cached                1636408       1636404       1636408       1636404
 MEMORY| Slab                   859112        859112        859112        859112
 MEMORY| SReclaimable           215056        215056        215056        215056
 MEMORY| MemLikelyFree       113679896     113679892     113679896     113679892


 GENERATE|  Preliminary Number of Bonds generated:                             0
 GENERATE|  Achieved consistency in connectivity generation.

 *******************************************************************************
 *******************************************************************************
 **                                                                           **
 **     #####                         ##              ##                      **
 **    ##   ##            ##          ##              ##                      **
 **   ##     ##                       ##            ######                    **
 **   ##     ##  ##   ##  ##   #####  ##  ##   ####   ##    #####    #####    **
 **   ##     ##  ##   ##  ##  ##      ## ##   ##      ##   ##   ##  ##   ##   **
 **   ##  ## ##  ##   ##  ##  ##      ####     ###    ##   ######   ######    **
 **    ##  ###   ##   ##  ##  ##      ## ##      ##   ##   ##       ##        **
 **     #######   #####   ##   #####  ##  ##  ####    ##    #####   ##        **
 **           ##                                                    ##        **
 **                                                                           **
 **                                                ... make the atoms dance   **
 **                                                                           **
 **            Copyright (C) by CP2K developers group (2000-2022)             **
 **                      J. Chem. Phys. 152, 194103 (2020)                    **
 **                                                                           **
 *******************************************************************************


 TOTAL NUMBERS AND MAXIMUM NUMBERS

  Total number of            - Atomic kinds:                                   2
                             - Atoms:                                        193
                             - Shell sets:                                   193
                             - Shells:                                       965
                             - Primitive Cartesian functions:                967
                             - Cartesian basis functions:                   2697
                             - Spherical basis functions:                   2505

  Maximum angular momentum of- Orbital basis functions:                        2
                             - Local part of the GTH pseudopotential:          2
                             - Non-local part of the GTH pseudopotential:      1


 SCF PARAMETERS         Density guess:                                    ATOMIC
                        --------------------------------------------------------
                        max_scf:                                             300
                        max_scf_history:                                       0
                        max_diis:                                              4
                        --------------------------------------------------------
                        eps_scf:                                        3.00E-07
                        eps_scf_history:                                0.00E+00
                        eps_diis:                                       1.00E-01
                        eps_eigval:                                     1.00E-05
                        --------------------------------------------------------
                        level_shift [a.u.]:                             0.000000
                        added MOs                                       100    0
                        --------------------------------------------------------
                        Mixing method:                            BROYDEN_MIXING
                                                charge density mixing in g-space
                        --------------------------------------------------------
                        Smear method:                                FERMI_DIRAC
                        Electronic temperature [K]:                        300.0
                        Electronic temperature [a.u.]:                  9.50E-04
                        Accuracy threshold:                             1.00E-10
                        --------------------------------------------------------
                        Outer loop SCF in use 
                        No variables optimised in outer loop
                        eps_scf                                         1.00E-06
                        max_scf                                              300
                        DIIS optimization
                        DIIS buffer length                                     3
                        step_size                                       5.00E-01

 -------------------------------------------------------------------------------
 -                                                                             -
 -  BSSE CALCULATION         FRAGMENT CONF: 10        FRAGMENT SUBCONF: 10     -
 -                           CHARGE =     0           MULTIPLICITY =     0     -
 -                                                                             -
 -                 ATOM INDEX                              ATOM NAME           -
 -                 ----------                              ---------           -
 -                      1                                   C                  -
 -                      2                                   C                  -
 -                      3                                   C                  -
 -                      4                                   C                  -
 -                      5                                   C                  -
 -                      6                                   C                  -
 -                      7                                   C                  -
 -                      8                                   C                  -
 -                      9                                   C                  -
 -                     10                                   C                  -
 -                     11                                   C                  -
 -                     12                                   C                  -
 -                     13                                   C                  -
 -                     14                                   C                  -
 -                     15                                   C                  -
 -                     16                                   C                  -
 -                     17                                   C                  -
 -                     18                                   C                  -
 -                     19                                   C                  -
 -                     20                                   C                  -
 -                     21                                   C                  -
 -                     22                                   C                  -
 -                     23                                   C                  -
 -                     24                                   C                  -
 -                     25                                   C                  -
 -                     26                                   C                  -
 -                     27                                   C                  -
 -                     28                                   C                  -
 -                     29                                   C                  -
 -                     30                                   C                  -
 -                     31                                   C                  -
 -                     32                                   C                  -
 -                     33                                   C                  -
 -                     34                                   C                  -
 -                     35                                   C                  -
 -                     36                                   C                  -
 -                     37                                   C                  -
 -                     38                                   C                  -
 -                     39                                   C                  -
 -                     40                                   C                  -
 -                     41                                   C                  -
 -                     42                                   C                  -
 -                     43                                   C                  -
 -                     44                                   C                  -
 -                     45                                   C                  -
 -                     46                                   C                  -
 -                     47                                   C                  -
 -                     48                                   C                  -
 -                     49                                   C                  -
 -                     50                                   C                  -
 -                     51                                   C                  -
 -                     52                                   C                  -
 -                     53                                   C                  -
 -                     54                                   C                  -
 -                     55                                   C                  -
 -                     56                                   C                  -
 -                     57                                   C                  -
 -                     58                                   C                  -
 -                     59                                   C                  -
 -                     60                                   C                  -
 -                     61                                   C                  -
 -                     62                                   C                  -
 -                     63                                   C                  -
 -                     64                                   C                  -
 -                     65                                   C                  -
 -                     66                                   C                  -
 -                     67                                   C                  -
 -                     68                                   C                  -
 -                     69                                   C                  -
 -                     70                                   C                  -
 -                     71                                   C                  -
 -                     72                                   C                  -
 -                     73                                   C                  -
 -                     74                                   C                  -
 -                     75                                   C                  -
 -                     76                                   C                  -
 -                     77                                   C                  -
 -                     78                                   C                  -
 -                     79                                   C                  -
 -                     80                                   C                  -
 -                     81                                   C                  -
 -                     82                                   C                  -
 -                     83                                   C                  -
 -                     84                                   C                  -
 -                     85                                   C                  -
 -                     86                                   C                  -
 -                     87                                   C                  -
 -                     88                                   C                  -
 -                     89                                   C                  -
 -                     90                                   C                  -
 -                     91                                   C                  -
 -                     92                                   C                  -
 -                     93                                   C                  -
 -                     94                                   C                  -
 -                     95                                   C                  -
 -                     96                                   C                  -
 -                     97                                   C                  -
 -                     98                                   C                  -
 -                     99                                   C                  -
 -                    100                                   C                  -
 -                    101                                   C                  -
 -                    102                                   C                  -
 -                    103                                   C                  -
 -                    104                                   C                  -
 -                    105                                   C                  -
 -                    106                                   C                  -
 -                    107                                   C                  -
 -                    108                                   C                  -
 -                    109                                   C                  -
 -                    110                                   C                  -
 -                    111                                   C                  -
 -                    112                                   C                  -
 -                    113                                   C                  -
 -                    114                                   C                  -
 -                    115                                   C                  -
 -                    116                                   C                  -
 -                    117                                   C                  -
 -                    118                                   C                  -
 -                    119                                   C                  -
 -                    120                                   C                  -
 -                    121                                   C                  -
 -                    122                                   C                  -
 -                    123                                   C                  -
 -                    124                                   C                  -
 -                    125                                   C                  -
 -                    126                                   C                  -
 -                    127                                   C                  -
 -                    128                                   C                  -
 -                    129                                   C                  -
 -                    130                                   C                  -
 -                    131                                   C                  -
 -                    132                                   C                  -
 -                    133                                   C                  -
 -                    134                                   C                  -
 -                    135                                   C                  -
 -                    136                                   C                  -
 -                    137                                   C                  -
 -                    138                                   C                  -
 -                    139                                   C                  -
 -                    140                                   C                  -
 -                    141                                   C                  -
 -                    142                                   C                  -
 -                    143                                   C                  -
 -                    144                                   C                  -
 -                    145                                   C                  -
 -                    146                                   C                  -
 -                    147                                   C                  -
 -                    148                                   C                  -
 -                    149                                   C                  -
 -                    150                                   C                  -
 -                    151                                   C                  -
 -                    152                                   C                  -
 -                    153                                   C                  -
 -                    154                                   C                  -
 -                    155                                   C                  -
 -                    156                                   C                  -
 -                    157                                   C                  -
 -                    158                                   C                  -
 -                    159                                   C                  -
 -                    160                                   C                  -
 -                    161                                   C                  -
 -                    162                                   C                  -
 -                    163                                   C                  -
 -                    164                                   C                  -
 -                    165                                   C                  -
 -                    166                                   C                  -
 -                    167                                   C                  -
 -                    168                                   C                  -
 -                    169                                   C                  -
 -                    170                                   C                  -
 -                    171                                   C                  -
 -                    172                                   C                  -
 -                    173                                   C                  -
 -                    174                                   C                  -
 -                    175                                   C                  -
 -                    176                                   C                  -
 -                    177                                   C                  -
 -                    178                                   C                  -
 -                    179                                   C                  -
 -                    180                                   C                  -
 -                    181                                   C                  -
 -                    182                                   C                  -
 -                    183                                   C                  -
 -                    184                                   C                  -
 -                    185                                   C                  -
 -                    186                                   C                  -
 -                    187                                   C                  -
 -                    188                                   C                  -
 -                    189                                   C                  -
 -                    190                                   C                  -
 -                    191                                   C                  -
 -                    192                                   C                  -
 -------------------------------------------------------------------------------

 *******************************************************************************
 *******************************************************************************
 **                                                                           **
 **     #####                         ##              ##                      **
 **    ##   ##            ##          ##              ##                      **
 **   ##     ##                       ##            ######                    **
 **   ##     ##  ##   ##  ##   #####  ##  ##   ####   ##    #####    #####    **
 **   ##     ##  ##   ##  ##  ##      ## ##   ##      ##   ##   ##  ##   ##   **
 **   ##  ## ##  ##   ##  ##  ##      ####     ###    ##   ######   ######    **
 **    ##  ###   ##   ##  ##  ##      ## ##      ##   ##   ##       ##        **
 **     #######   #####   ##   #####  ##  ##  ####    ##    #####   ##        **
 **           ##                                                    ##        **
 **                                                                           **
 **                                                ... make the atoms dance   **
 **                                                                           **
 **            Copyright (C) by CP2K developers group (2000-2022)             **
 **                      J. Chem. Phys. 152, 194103 (2020)                    **
 **                                                                           **
 *******************************************************************************


 TOTAL NUMBERS AND MAXIMUM NUMBERS

  Total number of            - Atomic kinds:                                   1
                             - Atoms:                                        192
                             - Shell sets:                                   192
                             - Shells:                                       960
                             - Primitive Cartesian functions:                960
                             - Cartesian basis functions:                   2688
                             - Spherical basis functions:                   2496

  Maximum angular momentum of- Orbital basis functions:                        2
                             - Local part of the GTH pseudopotential:          2
                             - Non-local part of the GTH pseudopotential:      0


 SCF PARAMETERS         Density guess:                                    ATOMIC
                        --------------------------------------------------------
                        max_scf:                                             300
                        max_scf_history:                                       0
                        max_diis:                                              4
                        --------------------------------------------------------
                        eps_scf:                                        3.00E-07
                        eps_scf_history:                                0.00E+00
                        eps_diis:                                       1.00E-01
                        eps_eigval:                                     1.00E-05
                        --------------------------------------------------------
                        level_shift [a.u.]:                             0.000000
                        added MOs                                       100    0
                        --------------------------------------------------------
                        Mixing method:                            BROYDEN_MIXING
                                                charge density mixing in g-space
                        --------------------------------------------------------
                        Smear method:                                FERMI_DIRAC
                        Electronic temperature [K]:                        300.0
                        Electronic temperature [a.u.]:                  9.50E-04
                        Accuracy threshold:                             1.00E-10
                        --------------------------------------------------------
                        Outer loop SCF in use 
                        No variables optimised in outer loop
                        eps_scf                                         1.00E-06
                        max_scf                                              300
                        DIIS optimization
                        DIIS buffer length                                     3
                        step_size                                       5.00E-01

 Number of electrons:                                                        768
 Number of occupied orbitals:                                                384
 Number of molecular orbitals:                                               484

 Number of orbital functions:                                               2496
 Number of independent orbital functions:                                   2496

 Extrapolation method: initial_guess


 SCF WAVEFUNCTION OPTIMIZATION

  Step     Update method      Time    Convergence         Total energy    Change
  ------------------------------------------------------------------------------
     1 NoMix/Diag. 0.10E+00    6.2     0.92566102     -1085.8346678537 -1.09E+03
     2 Broy./Diag. 0.10E+00    7.8     0.00227754     -1044.5662510944  4.13E+01
     3 Broy./Diag. 0.10E+00    7.8     0.02535667     -1076.6318239445 -3.21E+01
     4 Broy./Diag. 0.10E+00    7.9     0.00035459     -1090.2578413131 -1.36E+01
     5 Broy./Diag. 0.10E+00    7.9     0.00267153     -1090.8572367933 -5.99E-01
     6 Broy./Diag. 0.10E+00    7.9     0.00009875     -1092.0325346382 -1.18E+00
     7 Broy./Diag. 0.10E+00    8.0     0.00072998     -1092.5514741683 -5.19E-01
     8 Broy./Diag. 0.10E+00    8.1     0.00004620     -1092.9131603919 -3.62E-01
     9 Broy./Diag. 0.10E+00    8.1     0.00062786     -1093.0885073467 -1.75E-01
    10 Broy./Diag. 0.10E+00    8.2     0.00005017     -1093.3061278084 -2.18E-01
    11 Broy./Diag. 0.10E+00    8.4     0.00036145     -1093.2703286763  3.58E-02
    12 Broy./Diag. 0.10E+00    8.3     0.00003916     -1093.3495226736 -7.92E-02
    13 Broy./Diag. 0.10E+00    9.2     0.00025925     -1093.3921379788 -4.26E-02
    14 Broy./Diag. 0.10E+00   12.2     0.00008778     -1093.4390010961 -4.69E-02
    15 Broy./Diag. 0.10E+00   13.3     0.00012645     -1093.4657197715 -2.67E-02
    16 Broy./Diag. 0.10E+00   13.7     0.00009548     -1093.4833006987 -1.76E-02
    17 Broy./Diag. 0.10E+00   14.8     0.00003057     -1093.4765939701  6.71E-03
    18 Broy./Diag. 0.10E+00   10.5     0.00003748     -1093.4615582575  1.50E-02
    19 Broy./Diag. 0.10E+00    7.8     0.00002054     -1093.4598993179  1.66E-03
    20 Broy./Diag. 0.10E+00    7.9     0.00005661     -1093.4665280804 -6.63E-03
    21 Broy./Diag. 0.10E+00    7.9     0.00000588     -1093.4746197154 -8.09E-03
    22 Broy./Diag. 0.10E+00    9.2     0.00003642     -1093.4785242094 -3.90E-03
    23 Broy./Diag. 0.10E+00    9.9     0.00000331     -1093.4809060723 -2.38E-03
    24 Broy./Diag. 0.10E+00    8.0     0.00002021     -1093.4802105485  6.96E-04
    25 Broy./Diag. 0.10E+00    8.0     0.00000192     -1093.4800613609  1.49E-04
    26 Broy./Diag. 0.10E+00    8.1     0.00001116     -1093.4798120496  2.49E-04
    27 Broy./Diag. 0.10E+00    8.2     0.00000176     -1093.4798576818 -4.56E-05
    28 Broy./Diag. 0.10E+00    8.2     0.00000808     -1093.4796242000  2.33E-04
    29 Broy./Diag. 0.10E+00    8.2     0.00000088     -1093.4795995618  2.46E-05
    30 Broy./Diag. 0.10E+00    8.2     0.00000486     -1093.4798361156 -2.37E-04
    31 Broy./Diag. 0.10E+00    8.2     0.00000090     -1093.4799128477 -7.67E-05
    32 Broy./Diag. 0.10E+00    8.2     0.00000388     -1093.4799988238 -8.60E-05
    33 Broy./Diag. 0.10E+00    8.2     0.00000029     -1093.4800462926 -4.75E-05

  *** SCF run converged in    33 steps ***


  Electronic density on regular grids:       -768.0000000000        0.0000000000
  Core density on regular grids:              767.9999999993       -0.0000000007
  Total charge density on r-space grids:       -0.0000000006
  Total charge density g-space grids:          -0.0000000006

  Overlap energy of the core charge distribution:               0.00002989060397
  Self energy of the core charge distribution:              -2560.32152193892080
  Core Hamiltonian energy:                                    800.81452861912817
  Hartree energy:                                            1001.42091148880297
  Exchange-correlation energy:                               -335.15035670285130
  Dispersion energy:                                           -0.24363749341704
  Electronic entropic energy:                                  -0.00000015593445
  Fermi energy:                                                -0.11877032935016

  Total energy:                                             -1093.48004629258844

  outer SCF iter =    1 RMS gradient =   0.29E-06 energy =      -1093.4800462926
  outer SCF loop converged in   1 iterations or   33 steps


 *** WARNING in qs_loc_utils.F:1500 :: User requested the calculation of ***
 *** the localized wavefunction but the section LOCALIZE was not         ***
 *** specified. Localization will not be performed!                      ***


 -------------------------------------------------------------------------------
 -                                                                             -
 -  BSSE CALCULATION         FRAGMENT CONF: 01        FRAGMENT SUBCONF: 01     -
 -                           CHARGE =     0           MULTIPLICITY =     0     -
 -                                                                             -
 -                 ATOM INDEX                              ATOM NAME           -
 -                 ----------                              ---------           -
 -                    193                                   Na                 -
 -------------------------------------------------------------------------------

 *******************************************************************************
 *******************************************************************************
 **                                                                           **
 **     #####                         ##              ##                      **
 **    ##   ##            ##          ##              ##                      **
 **   ##     ##                       ##            ######                    **
 **   ##     ##  ##   ##  ##   #####  ##  ##   ####   ##    #####    #####    **
 **   ##     ##  ##   ##  ##  ##      ## ##   ##      ##   ##   ##  ##   ##   **
 **   ##  ## ##  ##   ##  ##  ##      ####     ###    ##   ######   ######    **
 **    ##  ###   ##   ##  ##  ##      ## ##      ##   ##   ##       ##        **
 **     #######   #####   ##   #####  ##  ##  ####    ##    #####   ##        **
 **           ##                                                    ##        **
 **                                                                           **
 **                                                ... make the atoms dance   **
 **                                                                           **
 **            Copyright (C) by CP2K developers group (2000-2022)             **
 **                      J. Chem. Phys. 152, 194103 (2020)                    **
 **                                                                           **
 *******************************************************************************

 *** WARNING in qs_environment.F:1486 :: More added MOs requested than     ***
 *** available. The full set of unoccupied MOs will be used. Use           ***
 *** 'ADDED_MOS -1' to always use all available MOs and to get rid of this ***
 *** warning.                                                              ***



 TOTAL NUMBERS AND MAXIMUM NUMBERS

  Total number of            - Atomic kinds:                                   1
                             - Atoms:                                          1
                             - Shell sets:                                     1
                             - Shells:                                         5
                             - Primitive Cartesian functions:                  7
                             - Cartesian basis functions:                      9
                             - Spherical basis functions:                      9

  Maximum angular momentum of- Orbital basis functions:                        1
                             - Local part of the GTH pseudopotential:          2
                             - Non-local part of the GTH pseudopotential:      1


 SCF PARAMETERS         Density guess:                                    ATOMIC
                        --------------------------------------------------------
                        max_scf:                                             300
                        max_scf_history:                                       0
                        max_diis:                                              4
                        --------------------------------------------------------
                        eps_scf:                                        3.00E-07
                        eps_scf_history:                                0.00E+00
                        eps_diis:                                       1.00E-01
                        eps_eigval:                                     1.00E-05
                        --------------------------------------------------------
                        level_shift [a.u.]:                             0.000000
                        added MOs                                         4    0
                        --------------------------------------------------------
                        Mixing method:                            BROYDEN_MIXING
                                                charge density mixing in g-space
                        --------------------------------------------------------
                        Smear method:                                FERMI_DIRAC
                        Electronic temperature [K]:                        300.0
                        Electronic temperature [a.u.]:                  9.50E-04
                        Accuracy threshold:                             1.00E-10
                        --------------------------------------------------------
                        Outer loop SCF in use 
                        No variables optimised in outer loop
                        eps_scf                                         1.00E-06
                        max_scf                                              300
                        DIIS optimization
                        DIIS buffer length                                     3
                        step_size                                       5.00E-01

 Number of electrons:                                                          9
 Number of occupied orbitals:                                                  5
 Number of molecular orbitals:                                                 9

 Number of orbital functions:                                                  9
 Number of independent orbital functions:                                      9

 Extrapolation method: initial_guess


 SCF WAVEFUNCTION OPTIMIZATION

  Step     Update method      Time    Convergence         Total energy    Change
  ------------------------------------------------------------------------------
     1 NoMix/Diag. 0.10E+00    0.8     0.02073975       -47.1659788469 -4.72E+01
     2 Broy./Diag. 0.10E+00    1.6     0.00009815       -47.1223790806  4.36E-02
     3 Broy./Diag. 0.10E+00    2.4     0.00101255       -47.1638503893 -4.15E-02
     4 Broy./Diag. 0.10E+00    2.2     0.00002409       -47.1716299987 -7.78E-03
     5 Broy./Diag. 0.10E+00    1.6     0.00025746       -47.1716538057 -2.38E-05
     6 Broy./Diag. 0.10E+00    1.7     0.00000829       -47.1717893427 -1.36E-04
     7 Broy./Diag. 0.10E+00    1.8     0.00014411       -47.1700686849  1.72E-03
     8 Broy./Diag. 0.10E+00    1.9     0.00001855       -47.1691016223  9.67E-04
     9 Broy./Diag. 0.10E+00    2.6     0.00019317       -47.1684565316  6.45E-04
    10 Broy./Diag. 0.10E+00    2.6     0.00000937       -47.1680756616  3.81E-04
    11 Broy./Diag. 0.10E+00    1.9     0.00009220       -47.1678885854  1.87E-04
    12 Broy./Diag. 0.10E+00    2.0     0.00000208       -47.1678414157  4.72E-05
    13 Broy./Diag. 0.10E+00    2.0     0.00000541       -47.1679543557 -1.13E-04
    14 Broy./Diag. 0.10E+00    2.0     0.00000080       -47.1679745715 -2.02E-05
    15 Broy./Diag. 0.10E+00    2.8     0.00001125       -47.1678063000  1.68E-04
    16 Broy./Diag. 0.10E+00    2.5     0.00000235       -47.1677833573  2.29E-05
    17 Broy./Diag. 0.10E+00    1.9     0.00000228       -47.1678284129 -4.51E-05
    18 Broy./Diag. 0.10E+00    2.0     0.00000201       -47.1678727952 -4.44E-05
    19 Broy./Diag. 0.10E+00    2.0     0.00000185       -47.1678916278 -1.88E-05
    20 Broy./Diag. 0.10E+00    2.0     0.00000188       -47.1678864766  5.15E-06
    21 Broy./Diag. 0.10E+00    3.0     0.00000276       -47.1678655953  2.09E-05
    22 Broy./Diag. 0.10E+00    2.3     0.00000351       -47.1678403436  2.53E-05
    23 Broy./Diag. 0.10E+00    2.0     0.00000340       -47.1678204983  1.98E-05
    24 Broy./Diag. 0.10E+00    2.0     0.00000086       -47.1678193890  1.11E-06
    25 Broy./Diag. 0.10E+00    2.0     0.00000038       -47.1678288765 -9.49E-06
    26 Broy./Diag. 0.10E+00    2.0     0.00000035       -47.1678233695  5.51E-06
    27 Broy./Diag. 0.10E+00    3.0     0.00000073       -47.1678108607  1.25E-05
    28 Broy./Diag. 0.10E+00    2.3     0.00000075       -47.1678063934  4.47E-06
    29 Broy./Diag. 0.10E+00    2.0     0.00000059       -47.1678067008 -3.07E-07
    30 Broy./Diag. 0.10E+00    2.0     0.00000027       -47.1678097468 -3.05E-06

  *** SCF run converged in    30 steps ***


  Electronic density on regular grids:         -9.0004222194       -0.0004222194
  Core density on regular grids:                9.0000000000       -0.0000000000
  Total charge density on r-space grids:       -0.0004222194
  Total charge density g-space grids:          -0.0004222194

  Overlap energy of the core charge distribution:               0.00000000000000
  Self energy of the core charge distribution:                -96.60649019442629
  Core Hamiltonian energy:                                     29.76253513619507
  Hartree energy:                                              26.72186263158780
  Exchange-correlation energy:                                 -7.04439168197976
  Dispersion energy:                                           -0.00000859667287
  Electronic entropic energy:                                  -0.00131704147593
  Fermi energy:                                                -0.09146926580932

  Total energy:                                               -47.16780974677197

  outer SCF iter =    1 RMS gradient =   0.27E-06 energy =        -47.1678097468
  outer SCF loop converged in   1 iterations or   30 steps


 *** WARNING in qs_loc_utils.F:1500 :: User requested the calculation of ***
 *** the localized wavefunction but the section LOCALIZE was not         ***
 *** specified. Localization will not be performed!                      ***


 -------------------------------------------------------------------------------
 -                                                                             -
 -  BSSE CALCULATION         FRAGMENT CONF: 11        FRAGMENT SUBCONF: 10     -
 -                           CHARGE =     0           MULTIPLICITY =     0     -
 -                                                                             -
 -                 ATOM INDEX                              ATOM NAME           -
 -                 ----------                              ---------           -
 -                      1                                   C                  -
 -                      2                                   C                  -
 -                      3                                   C                  -
 -                      4                                   C                  -
 -                      5                                   C                  -
 -                      6                                   C                  -
 -                      7                                   C                  -
 -                      8                                   C                  -
 -                      9                                   C                  -
 -                     10                                   C                  -
 -                     11                                   C                  -
 -                     12                                   C                  -
 -                     13                                   C                  -
 -                     14                                   C                  -
 -                     15                                   C                  -
 -                     16                                   C                  -
 -                     17                                   C                  -
 -                     18                                   C                  -
 -                     19                                   C                  -
 -                     20                                   C                  -
 -                     21                                   C                  -
 -                     22                                   C                  -
 -                     23                                   C                  -
 -                     24                                   C                  -
 -                     25                                   C                  -
 -                     26                                   C                  -
 -                     27                                   C                  -
 -                     28                                   C                  -
 -                     29                                   C                  -
 -                     30                                   C                  -
 -                     31                                   C                  -
 -                     32                                   C                  -
 -                     33                                   C                  -
 -                     34                                   C                  -
 -                     35                                   C                  -
 -                     36                                   C                  -
 -                     37                                   C                  -
 -                     38                                   C                  -
 -                     39                                   C                  -
 -                     40                                   C                  -
 -                     41                                   C                  -
 -                     42                                   C                  -
 -                     43                                   C                  -
 -                     44                                   C                  -
 -                     45                                   C                  -
 -                     46                                   C                  -
 -                     47                                   C                  -
 -                     48                                   C                  -
 -                     49                                   C                  -
 -                     50                                   C                  -
 -                     51                                   C                  -
 -                     52                                   C                  -
 -                     53                                   C                  -
 -                     54                                   C                  -
 -                     55                                   C                  -
 -                     56                                   C                  -
 -                     57                                   C                  -
 -                     58                                   C                  -
 -                     59                                   C                  -
 -                     60                                   C                  -
 -                     61                                   C                  -
 -                     62                                   C                  -
 -                     63                                   C                  -
 -                     64                                   C                  -
 -                     65                                   C                  -
 -                     66                                   C                  -
 -                     67                                   C                  -
 -                     68                                   C                  -
 -                     69                                   C                  -
 -                     70                                   C                  -
 -                     71                                   C                  -
 -                     72                                   C                  -
 -                     73                                   C                  -
 -                     74                                   C                  -
 -                     75                                   C                  -
 -                     76                                   C                  -
 -                     77                                   C                  -
 -                     78                                   C                  -
 -                     79                                   C                  -
 -                     80                                   C                  -
 -                     81                                   C                  -
 -                     82                                   C                  -
 -                     83                                   C                  -
 -                     84                                   C                  -
 -                     85                                   C                  -
 -                     86                                   C                  -
 -                     87                                   C                  -
 -                     88                                   C                  -
 -                     89                                   C                  -
 -                     90                                   C                  -
 -                     91                                   C                  -
 -                     92                                   C                  -
 -                     93                                   C                  -
 -                     94                                   C                  -
 -                     95                                   C                  -
 -                     96                                   C                  -
 -                     97                                   C                  -
 -                     98                                   C                  -
 -                     99                                   C                  -
 -                    100                                   C                  -
 -                    101                                   C                  -
 -                    102                                   C                  -
 -                    103                                   C                  -
 -                    104                                   C                  -
 -                    105                                   C                  -
 -                    106                                   C                  -
 -                    107                                   C                  -
 -                    108                                   C                  -
 -                    109                                   C                  -
 -                    110                                   C                  -
 -                    111                                   C                  -
 -                    112                                   C                  -
 -                    113                                   C                  -
 -                    114                                   C                  -
 -                    115                                   C                  -
 -                    116                                   C                  -
 -                    117                                   C                  -
 -                    118                                   C                  -
 -                    119                                   C                  -
 -                    120                                   C                  -
 -                    121                                   C                  -
 -                    122                                   C                  -
 -                    123                                   C                  -
 -                    124                                   C                  -
 -                    125                                   C                  -
 -                    126                                   C                  -
 -                    127                                   C                  -
 -                    128                                   C                  -
 -                    129                                   C                  -
 -                    130                                   C                  -
 -                    131                                   C                  -
 -                    132                                   C                  -
 -                    133                                   C                  -
 -                    134                                   C                  -
 -                    135                                   C                  -
 -                    136                                   C                  -
 -                    137                                   C                  -
 -                    138                                   C                  -
 -                    139                                   C                  -
 -                    140                                   C                  -
 -                    141                                   C                  -
 -                    142                                   C                  -
 -                    143                                   C                  -
 -                    144                                   C                  -
 -                    145                                   C                  -
 -                    146                                   C                  -
 -                    147                                   C                  -
 -                    148                                   C                  -
 -                    149                                   C                  -
 -                    150                                   C                  -
 -                    151                                   C                  -
 -                    152                                   C                  -
 -                    153                                   C                  -
 -                    154                                   C                  -
 -                    155                                   C                  -
 -                    156                                   C                  -
 -                    157                                   C                  -
 -                    158                                   C                  -
 -                    159                                   C                  -
 -                    160                                   C                  -
 -                    161                                   C                  -
 -                    162                                   C                  -
 -                    163                                   C                  -
 -                    164                                   C                  -
 -                    165                                   C                  -
 -                    166                                   C                  -
 -                    167                                   C                  -
 -                    168                                   C                  -
 -                    169                                   C                  -
 -                    170                                   C                  -
 -                    171                                   C                  -
 -                    172                                   C                  -
 -                    173                                   C                  -
 -                    174                                   C                  -
 -                    175                                   C                  -
 -                    176                                   C                  -
 -                    177                                   C                  -
 -                    178                                   C                  -
 -                    179                                   C                  -
 -                    180                                   C                  -
 -                    181                                   C                  -
 -                    182                                   C                  -
 -                    183                                   C                  -
 -                    184                                   C                  -
 -                    185                                   C                  -
 -                    186                                   C                  -
 -                    187                                   C                  -
 -                    188                                   C                  -
 -                    189                                   C                  -
 -                    190                                   C                  -
 -                    191                                   C                  -
 -                    192                                   C                  -
 -                    193                                   Na_ghost           -
 -------------------------------------------------------------------------------

 *******************************************************************************
 *******************************************************************************
 **                                                                           **
 **     #####                         ##              ##                      **
 **    ##   ##            ##          ##              ##                      **
 **   ##     ##                       ##            ######                    **
 **   ##     ##  ##   ##  ##   #####  ##  ##   ####   ##    #####    #####    **
 **   ##     ##  ##   ##  ##  ##      ## ##   ##      ##   ##   ##  ##   ##   **
 **   ##  ## ##  ##   ##  ##  ##      ####     ###    ##   ######   ######    **
 **    ##  ###   ##   ##  ##  ##      ## ##      ##   ##   ##       ##        **
 **     #######   #####   ##   #####  ##  ##  ####    ##    #####   ##        **
 **           ##                                                    ##        **
 **                                                                           **
 **                                                ... make the atoms dance   **
 **                                                                           **
 **            Copyright (C) by CP2K developers group (2000-2022)             **
 **                      J. Chem. Phys. 152, 194103 (2020)                    **
 **                                                                           **
 *******************************************************************************


 TOTAL NUMBERS AND MAXIMUM NUMBERS

  Total number of            - Atomic kinds:                                   2
                             - Atoms:                                        193
                             - Shell sets:                                   193
                             - Shells:                                       965
                             - Primitive Cartesian functions:                967
                             - Cartesian basis functions:                   2697
                             - Spherical basis functions:                   2505

  Maximum angular momentum of- Orbital basis functions:                        2
                             - Local part of the GTH pseudopotential:          2
                             - Non-local part of the GTH pseudopotential:      0


 SCF PARAMETERS         Density guess:                                    ATOMIC
                        --------------------------------------------------------
                        max_scf:                                             300
                        max_scf_history:                                       0
                        max_diis:                                              4
                        --------------------------------------------------------
                        eps_scf:                                        3.00E-07
                        eps_scf_history:                                0.00E+00
                        eps_diis:                                       1.00E-01
                        eps_eigval:                                     1.00E-05
                        --------------------------------------------------------
                        level_shift [a.u.]:                             0.000000
                        added MOs                                       100    0
                        --------------------------------------------------------
                        Mixing method:                            BROYDEN_MIXING
                                                charge density mixing in g-space
                        --------------------------------------------------------
                        Smear method:                                FERMI_DIRAC
                        Electronic temperature [K]:                        300.0
                        Electronic temperature [a.u.]:                  9.50E-04
                        Accuracy threshold:                             1.00E-10
                        --------------------------------------------------------
                        Outer loop SCF in use 
                        No variables optimised in outer loop
                        eps_scf                                         1.00E-06
                        max_scf                                              300
                        DIIS optimization
                        DIIS buffer length                                     3
                        step_size                                       5.00E-01

 Number of electrons:                                                        768
 Number of occupied orbitals:                                                384
 Number of molecular orbitals:                                               484

 Number of orbital functions:                                               2505
 Number of independent orbital functions:                                   2505

 Extrapolation method: initial_guess


 SCF WAVEFUNCTION OPTIMIZATION

  Step     Update method      Time    Convergence         Total energy    Change
  ------------------------------------------------------------------------------
     1 NoMix/Diag. 0.10E+00    5.9     0.92593872     -1085.8346678537 -1.09E+03
     2 Broy./Diag. 0.10E+00    8.2     0.00227755     -1044.5585766491  4.13E+01
     3 Broy./Diag. 0.10E+00    8.2     0.02535676     -1076.6209743032 -3.21E+01
     4 Broy./Diag. 0.10E+00    8.2     0.00035413     -1090.2525201002 -1.36E+01
     5 Broy./Diag. 0.10E+00    8.2     0.00262019     -1090.8523316831 -6.00E-01
     6 Broy./Diag. 0.10E+00    8.2     0.00009837     -1092.0294110046 -1.18E+00
     7 Broy./Diag. 0.10E+00    8.3     0.00072260     -1092.5493734117 -5.20E-01
     8 Broy./Diag. 0.10E+00   40.5     0.00004733     -1092.9125262406 -3.63E-01
     9 Broy./Diag. 0.10E+00   42.4     0.00060545     -1093.0883487589 -1.76E-01
    10 Broy./Diag. 0.10E+00   45.6     0.00005057     -1093.3072939054 -2.19E-01
    11 Broy./Diag. 0.10E+00   41.5     0.00036816     -1093.2710028782  3.63E-02
    12 Broy./Diag. 0.10E+00   43.6     0.00003845     -1093.3505133210 -7.95E-02
    13 Broy./Diag. 0.10E+00   43.5     0.00025403     -1093.3937163178 -4.32E-02
    14 Broy./Diag. 0.10E+00   44.4     0.00008514     -1093.4409600377 -4.72E-02
    15 Broy./Diag. 0.10E+00   45.9     0.00013402     -1093.4673923357 -2.64E-02
    16 Broy./Diag. 0.10E+00   45.1     0.00010350     -1093.4847481930 -1.74E-02
    17 Broy./Diag. 0.10E+00   42.4     0.00002972     -1093.4781515004  6.60E-03
    18 Broy./Diag. 0.10E+00   39.6     0.00003835     -1093.4631091259  1.50E-02
    19 Broy./Diag. 0.10E+00   43.1     0.00001996     -1093.4612866926  1.82E-03
    20 Broy./Diag. 0.10E+00   41.8     0.00005422     -1093.4674478454 -6.16E-03
    21 Broy./Diag. 0.10E+00   42.1     0.00000613     -1093.4752492685 -7.80E-03
    22 Broy./Diag. 0.10E+00   47.7     0.00003738     -1093.4796324268 -4.38E-03
    23 Broy./Diag. 0.10E+00   45.4     0.00000333     -1093.4823926262 -2.76E-03
    24 Broy./Diag. 0.10E+00   43.3     0.00001861     -1093.4814598235  9.33E-04
    25 Broy./Diag. 0.10E+00   43.5     0.00000219     -1093.4813116058  1.48E-04
    26 Broy./Diag. 0.10E+00   46.1     0.00001149     -1093.4811860353  1.26E-04
    27 Broy./Diag. 0.10E+00   42.5     0.00000178     -1093.4812194101 -3.34E-05
    28 Broy./Diag. 0.10E+00   43.6     0.00000803     -1093.4810530147  1.66E-04
    29 Broy./Diag. 0.10E+00   45.6     0.00000096     -1093.4810105326  4.25E-05
    30 Broy./Diag. 0.10E+00   42.3     0.00000555     -1093.4811332176 -1.23E-04
    31 Broy./Diag. 0.10E+00   46.2     0.00000088     -1093.4811744610 -4.12E-05
    32 Broy./Diag. 0.10E+00   46.7     0.00000399     -1093.4812583716 -8.39E-05
    33 Broy./Diag. 0.10E+00   47.7     0.00000033     -1093.4813258732 -6.75E-05
    34 Broy./Diag. 0.10E+00   45.2     0.00000189     -1093.4812853605  4.05E-05
    35 Broy./Diag. 0.10E+00   44.2     0.00000017     -1093.4813239505 -3.86E-05

  *** SCF run converged in    35 steps ***


  Electronic density on regular grids:       -767.9999999982        0.0000000018
  Core density on regular grids:              767.9999999993       -0.0000000007
  Total charge density on r-space grids:        0.0000000012
  Total charge density g-space grids:           0.0000000012

  Overlap energy of the core charge distribution:               0.00002989060397
  Self energy of the core charge distribution:              -2560.32152193892080
  Core Hamiltonian energy:                                    800.81052437976086
  Hartree energy:                                            1001.42618472492200
  Exchange-correlation energy:                               -335.15290335758630
  Dispersion energy:                                           -0.24363749341704
  Electronic entropic energy:                                  -0.00000015591182
  Fermi energy:                                                -0.11872990176518

  Total energy:                                             -1093.48132395054927

  outer SCF iter =    1 RMS gradient =   0.17E-06 energy =      -1093.4813239505
  outer SCF loop converged in   1 iterations or   35 steps


 *** WARNING in qs_loc_utils.F:1500 :: User requested the calculation of ***
 *** the localized wavefunction but the section LOCALIZE was not         ***
 *** specified. Localization will not be performed!                      ***


 -------------------------------------------------------------------------------
 -                                                                             -
 -  BSSE CALCULATION         FRAGMENT CONF: 11        FRAGMENT SUBCONF: 01     -
 -                           CHARGE =     0           MULTIPLICITY =     0     -
 -                                                                             -
 -                 ATOM INDEX                              ATOM NAME           -
 -                 ----------                              ---------           -
 -                      1                                   C_ghost            -
 -                      2                                   C_ghost            -
 -                      3                                   C_ghost            -
 -                      4                                   C_ghost            -
 -                      5                                   C_ghost            -
 -                      6                                   C_ghost            -
 -                      7                                   C_ghost            -
 -                      8                                   C_ghost            -
 -                      9                                   C_ghost            -
 -                     10                                   C_ghost            -
 -                     11                                   C_ghost            -
 -                     12                                   C_ghost            -
 -                     13                                   C_ghost            -
 -                     14                                   C_ghost            -
 -                     15                                   C_ghost            -
 -                     16                                   C_ghost            -
 -                     17                                   C_ghost            -
 -                     18                                   C_ghost            -
 -                     19                                   C_ghost            -
 -                     20                                   C_ghost            -
 -                     21                                   C_ghost            -
 -                     22                                   C_ghost            -
 -                     23                                   C_ghost            -
 -                     24                                   C_ghost            -
 -                     25                                   C_ghost            -
 -                     26                                   C_ghost            -
 -                     27                                   C_ghost            -
 -                     28                                   C_ghost            -
 -                     29                                   C_ghost            -
 -                     30                                   C_ghost            -
 -                     31                                   C_ghost            -
 -                     32                                   C_ghost            -
 -                     33                                   C_ghost            -
 -                     34                                   C_ghost            -
 -                     35                                   C_ghost            -
 -                     36                                   C_ghost            -
 -                     37                                   C_ghost            -
 -                     38                                   C_ghost            -
 -                     39                                   C_ghost            -
 -                     40                                   C_ghost            -
 -                     41                                   C_ghost            -
 -                     42                                   C_ghost            -
 -                     43                                   C_ghost            -
 -                     44                                   C_ghost            -
 -                     45                                   C_ghost            -
 -                     46                                   C_ghost            -
 -                     47                                   C_ghost            -
 -                     48                                   C_ghost            -
 -                     49                                   C_ghost            -
 -                     50                                   C_ghost            -
 -                     51                                   C_ghost            -
 -                     52                                   C_ghost            -
 -                     53                                   C_ghost            -
 -                     54                                   C_ghost            -
 -                     55                                   C_ghost            -
 -                     56                                   C_ghost            -
 -                     57                                   C_ghost            -
 -                     58                                   C_ghost            -
 -                     59                                   C_ghost            -
 -                     60                                   C_ghost            -
 -                     61                                   C_ghost            -
 -                     62                                   C_ghost            -
 -                     63                                   C_ghost            -
 -                     64                                   C_ghost            -
 -                     65                                   C_ghost            -
 -                     66                                   C_ghost            -
 -                     67                                   C_ghost            -
 -                     68                                   C_ghost            -
 -                     69                                   C_ghost            -
 -                     70                                   C_ghost            -
 -                     71                                   C_ghost            -
 -                     72                                   C_ghost            -
 -                     73                                   C_ghost            -
 -                     74                                   C_ghost            -
 -                     75                                   C_ghost            -
 -                     76                                   C_ghost            -
 -                     77                                   C_ghost            -
 -                     78                                   C_ghost            -
 -                     79                                   C_ghost            -
 -                     80                                   C_ghost            -
 -                     81                                   C_ghost            -
 -                     82                                   C_ghost            -
 -                     83                                   C_ghost            -
 -                     84                                   C_ghost            -
 -                     85                                   C_ghost            -
 -                     86                                   C_ghost            -
 -                     87                                   C_ghost            -
 -                     88                                   C_ghost            -
 -                     89                                   C_ghost            -
 -                     90                                   C_ghost            -
 -                     91                                   C_ghost            -
 -                     92                                   C_ghost            -
 -                     93                                   C_ghost            -
[...]
    37 Broy./Diag. 0.10E+00    8.3     0.00000963     -1140.6925438383 -9.73E-04
    38 Broy./Diag. 0.10E+00    8.5     0.00000657     -1140.6926731288 -1.29E-04
    39 Broy./Diag. 0.10E+00    8.6     0.00000595     -1140.6926119471  6.12E-05
    40 Broy./Diag. 0.10E+00    8.6     0.00000976     -1140.6927610885 -1.49E-04
    41 Broy./Diag. 0.10E+00    8.7     0.00000996     -1140.6930082971 -2.47E-04
    42 Broy./Diag. 0.10E+00    8.3     0.00000062     -1140.6931824866 -1.74E-04
    43 Broy./Diag. 0.10E+00    8.3     0.00000348     -1140.6932623622 -7.99E-05
    44 Broy./Diag. 0.10E+00    8.1     0.00000148     -1140.6933222603 -5.99E-05
    45 Broy./Diag. 0.10E+00    8.0     0.00000890     -1140.6933154195  6.84E-06
    46 Broy./Diag. 0.10E+00    8.1     0.00000097     -1140.6932904033  2.50E-05
    47 Broy./Diag. 0.10E+00    8.1     0.00000189     -1140.6932736954  1.67E-05
    48 Broy./Diag. 0.10E+00    8.1     0.00000047     -1140.6932549242  1.88E-05
    49 Broy./Diag. 0.10E+00    8.4     0.00000101     -1140.6932333370  2.16E-05
    50 Broy./Diag. 0.10E+00    8.6     0.00000013     -1140.6932172903  1.60E-05

  *** SCF run converged in    50 steps ***


  Electronic density on regular grids:       -777.0004244081       -0.0004244081
  Core density on regular grids:              776.9999999993       -0.0000000007
  Total charge density on r-space grids:       -0.0004244087
  Total charge density g-space grids:          -0.0004244087

  Overlap energy of the core charge distribution:               0.00002989060397
  Self energy of the core charge distribution:              -2656.92801213334678
  Core Hamiltonian energy:                                    831.00028030474789
  Hartree energy:                                            1027.94425642471242
  Exchange-correlation energy:                               -342.45926310983424
  Dispersion energy:                                           -0.24836896328894
  Electronic entropic energy:                                  -0.00213970387910
  Fermi energy:                                                -0.10116762165695

  Total energy:                                             -1140.69321729028547

  outer SCF iter =    1 RMS gradient =   0.13E-06 energy =      -1140.6932172903
  outer SCF loop converged in   1 iterations or   50 steps


 *** WARNING in qs_loc_utils.F:1500 :: User requested the calculation of ***
 *** the localized wavefunction but the section LOCALIZE was not         ***
 *** specified. Localization will not be performed!                      ***


 -------------------------------------------------------------------------------
 -                                                                             -
 -                                 BSSE RESULTS                                -
 -                                                                             -
 -                 CP-corrected Total energy:    -1140.691286                  -
 -                                                                             -
 -                       1-body contribution:    -1093.480046                  -
 -                       1-body contribution:      -47.167810                  -
 -                                                                             -
 -                       2-body contribution:       -0.043430                  -
 -                 BSSE-free interaction energy:       -0.043430               -
 -------------------------------------------------------------------------------

 -------------------------------------------------------------------------------
 -                                                                             -
 -                                DBCSR STATISTICS                             -
 -                                                                             -
 -------------------------------------------------------------------------------
 COUNTER                                    TOTAL       BLAS       SMM       ACC
 flops     9 x     9 x     9                86022     100.0%      0.0%      0.0%
 flops     9 x     9 x    32               451008     100.0%      0.0%      0.0%
 flops     9 x     9 x   100               567000     100.0%      0.0%      0.0%
 flops     9 x     9 x   105               850500     100.0%      0.0%      0.0%
 flops     9 x    13 x     9              4580550     100.0%      0.0%      0.0%
 flops    13 x     9 x     9              4702698     100.0%      0.0%      0.0%
 flops     9 x     9 x   128              5287680     100.0%      0.0%      0.0%
 flops     9 x    13 x    32             48859200     100.0%      0.0%      0.0%
 flops    13 x     9 x    32             50162112     100.0%      0.0%      0.0%
 flops     9 x    13 x   100             61425000     100.0%      0.0%      0.0%
 flops    13 x     9 x   100             63063000     100.0%      0.0%      0.0%
 flops     9 x    13 x   105             92137500     100.0%      0.0%      0.0%
 flops    13 x     9 x   105             94594500     100.0%      0.0%      0.0%
 flops     9 x    13 x   128            572832000     100.0%      0.0%      0.0%
 flops    13 x     9 x   128            588107520     100.0%      0.0%      0.0%
 flops    13 x    13 x     9            960694020     100.0%      0.0%      0.0%
 flops    13 x    13 x    32          10247402880     100.0%      0.0%      0.0%
 flops    13 x    13 x   105          19324305000     100.0%      0.0%      0.0%
 flops    13 x    13 x   100          25029576000     100.0%      0.0%      0.0%
 flops    13 x    13 x   128         166785315840     100.0%      0.0%      0.0%
 flops inhomo. stacks                           0       0.0%      0.0%      0.0%
 flops total                       223.935000E+09     100.0%      0.0%      0.0%
 flops max/rank                     14.633780E+09     100.0%      0.0%      0.0%
 matmuls inhomo. stacks                         0       0.0%      0.0%      0.0%
 matmuls total                            6473118     100.0%      0.0%      0.0%
 number of processed stacks                 13086     100.0%      0.0%      0.0%
 average stack size                                   494.7       0.0       0.0
 marketing flops                   578.270986E+09
 -------------------------------------------------------------------------------
 # multiplications                            177
 max memory usage/rank               1.002877E+09
 # max total images/rank                        1
 # max 3D layers                                1
 # MPI messages exchanged                   16992
 MPI messages size (bytes):
  total size                         7.256552E+09
  min size                           0.000000E+00
  max size                         648.192000E+03
  average size                     427.057000E+03
 MPI breakdown and total messages size (bytes):
             size <=      128                2700                        0
       128 < size <=     8192                 180                   116640
      8192 < size <=    32768                   0                        0
     32768 < size <=   131072                 696                 31382640
    131072 < size <=  4194304               13416               7225055136
   4194304 < size <= 16777216                   0                        0
  16777216 < size                               0                        0
 -------------------------------------------------------------------------------
 -                                                                             -
 -                      DBCSR MESSAGE PASSING PERFORMANCE                      -
 -                                                                             -
 -------------------------------------------------------------------------------
 ROUTINE             CALLS      AVE VOLUME [Bytes]
 MP_Bcast               21                     12.
 MP_Allreduce         1303                      9.
 MP_Alltoall          5016                 436149.
 MP_ISend             2832                 172293.
 MP_IRecv             2832                 159019.
 -------------------------------------------------------------------------------

 -------------------------------------------------------------------------------
 -                                                                             -
 -                                DBM STATISTICS                               -
 -                                                                             -
 -------------------------------------------------------------------------------
    M  x    N  x    K                                          COUNT     PERCENT
 -------------------------------------------------------------------------------

 -------------------------------------------------------------------------------
 -                                                                             -
 -                                GRID STATISTICS                              -
 -                                                                             -
 -------------------------------------------------------------------------------
 LP    KERNEL             BACKEND                              COUNT     PERCENT
 4     collocate ortho    REF                               17072513      50.09%
 4     integrate ortho    REF                               16620261      48.76%
 3     collocate ortho    REF                                 186498       0.55%
 3     integrate ortho    REF                                 181716       0.53%
 0     collocate general  REF                                   9264       0.03%
 2     collocate ortho    REF                                   7548       0.02%
 2     integrate ortho    REF                                   7344       0.02%
 -------------------------------------------------------------------------------

 MEMORY| Estimated peak process memory [MiB]                                 957

 -------------------------------------------------------------------------------
 -                                                                             -
 -                         MESSAGE PASSING PERFORMANCE                         -
 -                                                                             -
 -------------------------------------------------------------------------------

 ROUTINE             CALLS      AVE VOLUME [Bytes]
 MP_Group               24
 MP_Bcast              507                1905585.
 MP_Allreduce         2636                   1830.
 MP_Sync               231
 MP_Alltoall          2401               27056013.
 MP_SendRecv          7584                 231792.
 MP_ISendRecv         5310                 187520.
 MP_Wait             13263
 MP_comm_split          30
 MP_ISend             5784                1534233.
 MP_IRecv             5784                1533988.
 MP_Recv               115                 613153.
 -------------------------------------------------------------------------------


 -------------------------------------------------------------------------------
 -                                                                             -
 -                           R E F E R E N C E S                               -
 -                                                                             -
 -------------------------------------------------------------------------------
 
 CP2K version 2023.1, the CP2K developers group (2023).
 CP2K is freely available from https://www.cp2k.org/ .

 Kuehne,Thomas D.; Iannuzzi,Marcella; Del Ben,Mauro;
 Rybkin,Vladimir V.; Seewald,Patrick; Stein,Frederick; Laino,Teodoro;
 Khaliullin,Rustam Z.; Schuett,Ole; Schiffmann,Florian; Golze,Dorothea;
 Wilhelm,Jan; Chulkov,Sergey; Bani-Hashemian,Mohammad Hossein;
 Weber,Valery; Borstnik,Urban; Taillefumier,Mathieu;
 Jakobovits,Alice Shoshana; Lazzaro,Alfio; Pabst,Hans; Mueller,Tiziano;
 Schade,Robert; Guidon,Manuel; Andermatt,Samuel; Holmberg,Nico;
 Schenter,Gregory K.; Hehn,Anna; Bussy,Augustin; Belleflamme,Fabian;
 Tabacchi,Gloria; Gloess,Andreas; Lass,Michael; Bethune,Iain;
 Mundy,Christopher J.; Plessl,Christian; Watkins,Matt;
 VandeVondele,Joost; Krack,Matthias; Hutter,Juerg. 
 The Journal of Chemical Physics, 152 (19), (2020). 
 CP2K: An electronic structure and molecular dynamics software package -
 Quickstep: Efficient and accurate electronic structure calculations.
 https://doi.org/10.1063/5.0007045

 Goerigk, Lars; Hansen, Andreas; Bauer, Christoph; Ehrlich, Stephan;
 Najibi, Asim; Grimme, Stefan. , 19 (48), (2017). 
 A look at the density functional theory zoo with the advanced GMTKN55 database
 for general main group thermochemistry, kinetics and noncovalent interactions.
 https://doi.org/10.1039/C7CP04913G

 Schuett, Ole; Messmer, Peter; Hutter, Juerg; VandeVondele, Joost. 
 Electronic Structure Calculations on Graphics Processing Units, John
 Wiley & Sons, Ltd, 173-190 (2016). 
 GPU-Accelerated Sparse Matrix-Matrix Multiplication for
 Linear Scaling Density Functional Theory.
 https://doi.org/10.1002/9781118670712.ch8

 Borstnik, U; VandeVondele, J; Weber, V; Hutter, J. 
 PARALLEL COMPUTING, 40 (5-6), 47-58 (2014). 
 Sparse matrix multiplication: The distributed block-compressed sparse
 row library.
 https://doi.org/10.1016/j.parco.2014.03.012

 Hutter, J; Iannuzzi, M; Schiffmann, F; VandeVondele, J. 
 WIREs Comput Mol Sci., 4 (1), 15-25 (2014). 
 CP2K: atomistic simulations of condensed matter systems.
 https://doi.org/10.1002/wcms.1159

 Marek, A; Blum, V; Johanni, R; Havu, V; Lang, B; Auckenthaler, T;
 Heinecke, A; Bungartz, H; Lederer, H. 
 Journal of Physics: Condensed Matter, 26 (21), (2014). 
 The ELPA library: scalable parallel eigenvalue solutions for
 electronic structure
 theory and computational science.
 https://doi.org/10.1088/0953-8984/26/21/213201

 Grimme, S; Ehrlich, S; Goerigk, L. 
 JOURNAL OF COMPUTATIONAL CHEMISTRY, 32, 1456 (2011). 
 Effect of the damping function in dispersion corrected density functional theory.
 https://doi.org/10.1002/jcc.21759

 Grimme, S; Antony, J; Ehrlich, S; Krieg, H. 
 JOURNAL OF CHEMICAL PHYSICS, 132 (15), 154104 (2010). 
 A consistent and accurate ab initio parametrization of density
 functional dispersion correction (DFT-D) for the 94 elements H-Pu.
 https://doi.org/10.1063/1.3382344

 VandeVondele, J; Hutter, J. 
 JOURNAL OF CHEMICAL PHYSICS, 127 (11), 114105 (2007). 
 Gaussian basis sets for accurate calculations on molecular systems in
 gas and condensed phases.
 https://doi.org/10.1063/1.2770708

 Krack, M. 
 THEORETICAL CHEMISTRY ACCOUNTS, 114 (1-3), 145-152 (2005). 
 Pseudopotentials for H to Kr optimized for gradient-corrected
 exchange-correlation functionals.
 https://doi.org/10.1007/s00214-005-0655-y

 VandeVondele, J; Krack, M; Mohamed, F; Parrinello, M; Chassaing, T;
 Hutter, J. COMPUTER PHYSICS COMMUNICATIONS, 167 (2), 103-128 (2005). 
 QUICKSTEP: Fast and accurate density functional calculations using a
 mixed Gaussian and plane waves approach.
 https://doi.org/10.1016/j.cpc.2004.12.014

 Frigo, M; Johnson, SG. 
 PROCEEDINGS OF THE IEEE, 93 (2), 216-231 (2005). 
 The design and implementation of FFTW3.
 https://doi.org/10.1109/JPROC.2004.840301

 Hartwigsen, C; Goedecker, S; Hutter, J. 
 PHYSICAL REVIEW B, 58 (7), 3641-3662 (1998). 
 Relativistic separable dual-space Gaussian pseudopotentials from H to Rn.
 https://doi.org/10.1103/PhysRevB.58.3641

 Lippert, G; Hutter, J; Parrinello, M. 
 MOLECULAR PHYSICS, 92 (3), 477-487 (1997). 
 A hybrid Gaussian and plane wave density functional scheme.
 https://doi.org/10.1080/002689797170220

 Perdew, JP; Burke, K; Ernzerhof, M. 
 PHYSICAL REVIEW LETTERS, 77 (18), 3865-3868 (1996). 
 Generalized gradient approximation made simple.
 https://doi.org/10.1103/PhysRevLett.77.3865

 Goedecker, S; Teter, M; Hutter, J. 
 PHYSICAL REVIEW B, 54 (3), 1703-1710 (1996). 
 Separable dual-space Gaussian pseudopotentials.
 https://doi.org/10.1103/PhysRevB.54.1703


 -------------------------------------------------------------------------------
 -                                                                             -
 -                                T I M I N G                                  -
 -                                                                             -
 -------------------------------------------------------------------------------
 SUBROUTINE                       CALLS  ASD         SELF TIME        TOTAL TIME
                                MAXIMUM       AVERAGE  MAXIMUM  AVERAGE  MAXIMUM
 CP2K                                 1  1.0    1.160    1.192 3867.205 3867.207
 qs_energies                          5  2.0    0.001    0.001 3855.722 3856.043
 scf_env_do_scf                       5  3.0    0.001    0.002 3826.612 3826.934
 scf_env_do_scf_inner_loop          177  4.0    0.010    0.022 3826.611 3826.932
 qs_scf_new_mos                     177  5.0    0.006    0.021 2895.555 2895.839
 eigensolver                        177  6.0    0.019    0.032 2800.914 2801.540
 cp_fm_diag_elpa                    147  7.0    0.002    0.002 2198.732 2199.805
 cp_fm_diag_elpa_base               147  8.0 2194.004 2195.179 2196.386 2196.604
 cp_fm_triangular_multiply          531  7.0  600.252  602.388  600.252  602.388
 qs_ks_update_qs_env                177  5.0    0.005    0.015  471.378  471.710
 rebuild_ks_matrix                  177  6.0    0.002    0.002  467.386  467.710
 qs_ks_build_kohn_sham_matrix       177  7.0    0.047    0.061  467.384  467.709
 qs_rho_update_rho_low              182  5.0    0.002    0.002  340.257  340.722
 calculate_rho_elec                 182  6.0    0.841    0.913  340.255  340.720
 sum_up_and_integrate               177  8.0    2.173    2.337  322.133  322.455
 integrate_v_rspace                 177  9.0    0.015    0.029  319.959  320.182
 density_rs2pw                      182  7.0    0.018    0.033  214.500  286.343
 rs_pw_transfer                    1441  9.5    0.042    0.057  179.972  249.847
 grid_integrate_task_list           177 10.0  118.329  220.526  118.329  220.526
 grid_collocate_task_list           182  7.0  118.553  211.397  118.553  211.397
 mp_alltoall_d11v                  2513  9.2  125.474  199.210  125.474  199.210
 pw_transfer                       2326  8.9    0.347    0.429  189.883  196.119
 fft_wrap_pw1pw2                   1972  9.9    0.041    0.066  185.830  192.169
 rs_gather_matrices                 177 10.0    0.237    0.275  108.389  181.838
 mp_waitany                        5784 11.5  108.671  179.943  108.671  179.943
 rs_pw_transfer_RS2PW_150           187  8.9    4.098    4.821  102.270  172.439
 fft_wrap_pw1pw2_150                895 10.2   10.659   10.942  161.200  168.384
 fft3d_ps                          1972 11.9   65.239   72.692  133.748  141.225
 gspace_mixing                      172  5.0    0.825    0.902  122.973  123.098
 qs_vxc_create                      177  8.0    0.007    0.008   97.185   99.097
 xc_vxc_pw_create                   177  9.0    2.361    2.689   97.179   99.089
 potential_pw2rs                    177 10.0    0.078    0.097   93.226   93.577
 broyden_mixing                     172  6.0   76.588   78.373   89.017   89.413
 -------------------------------------------------------------------------------

 The number of warnings for this run is : 6
 
 -------------------------------------------------------------------------------
  **** **** ******  **  PROGRAM ENDED AT                 2025-06-24 13:40:13.259
 ***** ** ***  *** **   PROGRAM RAN ON                                sebnode128
 **    ****   ******    PROGRAM RAN BY                                    luehrs
 ***** **    ** ** **   PROGRAM PROCESS ID                               1762205
  **** **  *******  **  PROGRAM STOPPED IN /home/luehrs/PhD/Sodium_batteries/Sod
                                           ium-graphene-curvature/Sinus_surface2
                                           /Sinus7
