     193
 i =       57, E =     -1140.5788470795
  C        18.5313516141        2.1453117850       -0.8384314829
  C         6.3232595194       12.8957646611        3.5874538116
  C         7.5306207013       13.6094261697        3.8275451746
  C         8.7594392167       12.8958222768        3.9050851542
  C         9.9879550681       13.6094295791        3.8165144913
  C        11.1950890540       12.8960581189        3.5709886857
  C        12.3662449431       13.6093273106        3.1874463759
  C        13.4895384450       12.8960017689        2.6815758725
  C        14.5612132771       13.6092842062        2.0745936902
  C        15.5881336118       12.8962266546        1.3946583929
  C        16.5796381601       13.6091709018        0.6639206182
  C        17.5548157800       12.8962477009       -0.0884153888
  C        18.5320759401       13.6088082827       -0.8374690457
  C        19.5330918193       12.8962838848       -1.5553874676
  C        20.5707374143       13.6081347161       -2.2197425757
  C        21.6548431488       12.8962888256       -2.8058144581
  C        22.7852154330       13.6080962360       -3.2969862534
  C        21.6541476387       11.4604593099       -2.8061864892
  C        19.5326560726       11.4599658683       -1.5551691102
  C        17.5548571352       11.4595753447       -0.0880136874
  C        15.5879686177       11.4594767207        1.3947475374
  C        13.4892074827       11.4594423068        2.6813822989
  C        12.3658934857       10.7459410519        3.1872035546
  C        11.1949306695       11.4595800561        3.5710143087
  C         9.9878867758       10.7458705678        3.8169587417
  C         8.7593769290       11.4596668371        3.9052305620
  C         7.5305575185       10.7456879125        3.8280612638
  C         6.3232903953       11.4596297765        3.5874301669
  C         5.1551853845       10.7457129383        3.2012385072
  C        20.5700656834       10.7480357192       -2.2197472951
  C        18.5317698149       10.7465183107       -0.8374085578
  C        16.5795239863       10.7461600463        0.6640793358
  C        14.5608231203       10.7459421850        2.0742891697
  C        20.5664135318        9.3114510745       -2.2226618332
  C        19.5291367933        8.5966606620       -1.5591848240
  C        18.5304751345        9.3097140618       -0.8379863053
  C        17.5534909750        8.5961119321       -0.0889176283
  C        16.5789468029        9.3093715643        0.6639895878
  C        15.5871769278        8.5961789130        1.3943305711
  C        14.5603160337        9.3093416722        2.0740488611
  C        13.4885649292        8.5960257597        2.6809170212
  C        12.3656466414        9.3094046434        3.1871906481
  C        11.1948083627        8.5961386442        3.5716423627
  C         9.9878294210        9.3095364027        3.8175532339
  C         8.7593923252        8.5958792648        3.9063890259
  C         7.5306382132        9.3095169673        3.8280945360
  C         6.3236209478        8.5957912358        3.5867749954
  C         5.1555089307        9.3095036180        3.2005318868
  C         4.0358666813        8.5960514135        2.6900515097
  C         4.0360138323        7.1597735567        2.6896925853
  C         5.1558066625        6.4457697480        3.1996840873
  C         6.3237663521        7.1596525939        3.5862739138
  C         7.5307467297        6.4456283613        3.8279548242
  C         8.7594210418        7.1596554216        3.9065266016
  C         9.9879684605        6.4458562401        3.8183570754
  C        11.1948442215        7.1596349959        3.5720170452
  C        12.3655614196        6.4460142878        3.1874618726
  C        13.4883978955        7.1595592501        2.6808847054
  C        14.5598978624        6.4459883652        2.0737447241
  C        15.5867155070        7.1596199686        1.3940353109
  C        16.5782707791        6.4459401761        0.6636356462
  C        17.5530947439        7.1594466078       -0.0888206294
  C        18.5293208168        6.4451727914       -0.8387448645
  C        19.5277139220        7.1592922239       -1.5596020825
  C        18.5302806057        5.0082671936       -0.8393378637
  C        17.5536417775        4.2957131696       -0.0893200046
  C        16.5786110363        5.0092140566        0.6632537819
  C        15.5871158995        4.2962112870        1.3939811864
  C        14.5601777761        5.0093884291        2.0738230418
  C        13.4888785979        4.2961039447        2.6814065367
  C        12.3657679133        5.0094261912        3.1875743172
  C        11.1950592895        4.2960754000        3.5721520547
  C         9.9880108643        5.0094539973        3.8181240797
  C         8.7595060165        4.2957721907        3.9060123449
  C         7.5307740151        5.0094333016        3.8277472362
  C         6.3237200065        4.2957747800        3.5862262673
  C         5.1557175525        5.0095730906        3.1998182002
  C         4.0356959146        4.2960489909        2.6902550711
  C         2.9685785663        5.0096174295        2.0770985609
  C         2.9686361492        6.4461190039        2.0770721948
  C         1.9462681463        4.2963231245        1.3921068507
  C         1.9466038202        2.8597154980        1.3916541373
  C         2.9684943470        2.1460675275        2.0774237000
  C         4.0354993460        2.8597688012        2.6907632183
  C         5.1552497319        2.1457754931        3.2010062451
  C         6.3235822186        2.8596417675        3.5866814836
  C         7.5307260073        2.1455755078        3.8274214751
  C         8.7595320116        2.8595588118        3.9053359487
  C         9.9880380549        2.1457651391        3.8169254248
  C        11.1951540622        2.8595430372        3.5714970855
  C        12.3662488942        2.1459591381        3.1877738647
  C        13.4892309789        2.8595529404        2.6814691828
  C        14.5610069902        2.1460331834        2.0744554978
  C        15.5874584959        2.8595070779        1.3940317051
  C        16.5793072806        2.1460385208        0.6635184741
  C        17.5539960187        2.8589665069       -0.0894836754
  C        20.5692731848        2.1442044619       -2.2220243160
  C        21.6518130626        2.8558069186       -2.8117185735
  C        25.1658596411        2.1442080576       -3.9218275745
  C        26.3941446750        2.8579485678       -4.0158782898
  C        28.8365966786        2.8589702182       -3.7290817102
  C        27.6245800679        2.1451480026       -3.9502036993
  C        33.2433980429        2.8597415043       -1.5851366517
  C        30.0123678643        2.1456559843       -3.3606334625
  C        31.1393060110        2.8593138959       -2.8627739258
  C        32.2144757027        2.1460452558       -2.2617643593
  C        34.2353649909        2.1463827817       -0.8552635863
  C        19.5296736271        4.2939354058       -1.5594226350
  C        22.7838383066        2.1438577859       -3.3004819266
  C        19.5315040577        2.8574179916       -1.5581981893
  C        35.2076327890        2.8597864297       -0.0995989275
  C         0.9580253540        2.1462545710        0.6575494816
  C        23.9570247908        2.8561600365       -3.6786782031
  C        23.9585508773       12.8961828686       -3.6734242037
  C        25.1660651147       13.6082923908       -3.9204281596
  C        26.3945529504       12.8958945358       -4.0159116869
  C        27.6246779640       13.6089029204       -3.9507490796
  C        28.8369788067       12.8959028545       -3.7309115541
  C        30.0124563633       13.6091159295       -3.3613402548
  C        31.1393733975       12.8960602892       -2.8633166029
  C        32.2143045959       13.6093104830       -2.2619277004
  C        33.2433549471       12.8964053098       -1.5851376633
  C        34.2353852081       13.6095997522       -0.8554052673
  C        35.2078862526       12.8964895758       -0.0999509406
  C        36.1783178738       13.6095903860        0.6571676166
  C        37.1669910955       12.8963617648        1.3912376927
  C        38.1885017162       13.6095939032        2.0775052812
  C        39.2553513620       12.8960376348        2.6912625952
  C        40.3750175936       13.6095656059        3.2016469489
  C        39.2553955869       11.4597647684        2.6912193360
  C        37.1669673407       11.4597904399        1.3912968735
  C        35.2079414140       11.4598426630       -0.0998555681
  C        33.2432366750       11.4597375536       -1.5847320016
  C        31.1393281383       11.4594441122       -2.8628721704
  C        30.0125885348       10.7458413540       -3.3606903907
  C        28.8371665418       11.4595144385       -3.7305703625
  C        27.6249124638       10.7460355220       -3.9500729661
  C        26.3949164297       11.4599385418       -4.0156021367
  C        25.1664630072       10.7473920212       -3.9195822120
  C        23.9587440680       11.4603583796       -3.6735521434
  C        22.7850330189       10.7489144213       -3.2968574648
  C        38.1888090688       10.7461601795        2.0770348152
  C        36.1781666616       10.7463605332        0.6574577542
  C        34.2352056062       10.7464158441       -0.8548552309
  C        32.2142451195       10.7461408545       -2.2611600106
  C        38.1887167563        9.3096806364        2.0771459581
  C        37.1666754841        8.5964292054        1.3916953864
  C        36.1778237756        9.3096832087        0.6580986644
  C        35.2075581070        8.5965395137       -0.0991249636
  C        34.2352584646        9.3096641865       -0.8545732724
  C        33.2432498709        8.5964107859       -1.5841748476
  C        32.2143936024        9.3095012508       -2.2608034107
  C        31.1394157801        8.5960642011       -2.8617032234
  C        30.0128108944        9.3093316884       -3.3600676151
  C        28.8371487794        8.5957419259       -3.7283963017
  C        27.6253614126        9.3095464971       -3.9496027284
  C        26.3951439717        8.5961423827       -4.0151751558
  C        25.1673371247        9.3110324468       -3.9211062305
  C        23.9569929963        8.5989724512       -3.6823260787
  C        22.7822804882        9.3126292189       -3.3038873002
  C        21.6471549520        8.5997342061       -2.8173252798
  C        21.6405487465        7.1590776033       -2.8275268695
  C        22.7734908727        6.4420912165       -3.3275547453
  C        23.9558746934        7.1590550615       -3.6907536925
  C        25.1674513573        6.4434248461       -3.9258690288
  C        26.3956555175        7.1593144690       -4.0147874761
  C        27.6253844075        6.4448844039       -3.9476149733
  C        28.8372668027        7.1593252439       -3.7276156769
  C        30.0129011911        6.4456596932       -3.3593957457
  C        31.1396421549        7.1595481848       -2.8618072599
  C        32.2146149013        6.4460689259       -2.2609165674
  C        33.2433910608        7.1597852464       -1.5843027131
  C        34.2349452975        6.4463991738       -0.8541431874
  C        35.2072318045        7.1598620636       -0.0986554125
  C        36.1772866092        6.4463306686        0.6587233134
  C        37.1663440957        7.1598141275        1.3921185480
  C        36.1773723113        5.0096184758        0.6585054108
  C        35.2073716603        4.2964584933       -0.0990711913
  C        34.2349650666        5.0096160903       -0.8543981539
  C        33.2434234545        4.2963892339       -1.5847376056
  C        32.2144374151        5.0094101009       -2.2612363454
  C        31.1395619678        4.2959015554       -2.8624541207
  C        30.0124575723        5.0091937391       -3.3594423491
  C        28.8368495601        4.2954234025       -3.7281352820
  C        27.6245382095        5.0084306688       -3.9477034088
  C        26.3946103319        4.2941110695       -4.0155621743
  C        25.1652023498        5.0062619790       -3.9259192042
  C        23.9559350432        4.2922262425       -3.6849919744
  C        22.7772826179        5.0025878085       -3.3170030053
  C        21.6474528352        4.2918692571       -2.8186001151
  C        20.5643237199        5.0054330562       -2.2293536963
  C        20.5610053199        6.4432750579       -2.2296008236
 Na        23.5269323722        7.0233910836       -0.8908007294
