 DBCSR| CPU Multiplication driver                                           BLAS (U)
 DBCSR| Multrec recursion limit                                              512 (U)
 DBCSR| Multiplication stack size                                           1000 (D)
 DBCSR| Maximum elements for images                                    UNLIMITED (U)
 DBCSR| Multiplicative factor virtual images                                   1 (U)
 DBCSR| Use multiplication densification                                       T (D)
 DBCSR| Multiplication size stacks                                             3 (U)
 DBCSR| Use memory pool for CPU allocation                                     F (U)
 DBCSR| Number of 3D layers                                               SINGLE (U)
 DBCSR| Use MPI memory allocation                                              F (U)
 DBCSR| Use RMA algorithm                                                      F (U)
 DBCSR| Use Communication thread                                               T (U)
 DBCSR| Communication thread load                                             87 (D)
 DBCSR| MPI: My process id                                                     0
 DBCSR| MPI: Number of processes                                              16
 DBCSR| OMP: Current number of threads                                         1
 DBCSR| OMP: Max number of threads                                             1
 DBCSR| Split modifier for TAS multiplication algorithm                  1.0E+00 (U)


  **** **** ******  **  PROGRAM STARTED AT               2025-09-09 11:05:27.754
 ***** ** ***  *** **   PROGRAM STARTED ON                            sebnode129
 **    ****   ******    PROGRAM STARTED BY                                luehrs
 ***** **    ** ** **   PROGRAM PROCESS ID                               2260571
  **** **  *******  **  PROGRAM STARTED IN /home/luehrs/PhD/Sodium_batteries/Sod
                                           ium-graphene-functional_groups/Carbox
                                           yl/Carboxyl_hydrogenated_edges_armcha
                                           ir

 CP2K| version string:                                       CP2K version 2023.1
 CP2K| source code revision number:                                  git:b888bd8
 CP2K| cp2kflags: omp libint fftw3 libxc elpa parallel scalapack spglib         
 CP2K| is freely available from                            https://www.cp2k.org/
 CP2K| Program compiled at                          Tue Jan 10 19:52:03 UTC 2023
 CP2K| Program compiled on                                            x86-ubc-01
 CP2K| Program compiled for                                Linux-x86_64-gfortran
 CP2K| Data directory path                                       /usr/share/cp2k
 CP2K| Input file name                                         input.zig-zag.inp

 GLOBAL| Force Environment number                                              1
 GLOBAL| Basis set file name                                      ./BASIS_MOLOPT
 GLOBAL| Potential file name                                    ./GTH_POTENTIALS
 GLOBAL| MM Potential file name                                     MM_POTENTIAL
 GLOBAL| Coordinate file name                        carboxyl_sodium_relaxed.xyz
 GLOBAL| Method name                                                        CP2K
 GLOBAL| Project name                         carboxyl_sodium_BSSE_PBE_UKS_FALSE
 GLOBAL| Run type                                                           BSSE
 GLOBAL| FFT library                                                       FFTW3
 GLOBAL| Diagonalization library                                            ELPA
 GLOBAL| DGEMM library                                                      BLAS
 GLOBAL| Minimum number of eigenvectors for ELPA usage                        16
 GLOBAL| Orthonormality check for eigenvectors                          DISABLED
 GLOBAL| Matrix multiplication library                                 ScaLAPACK
 GLOBAL| All-to-all communication in single precision                          F
 GLOBAL| FFTs using library dependent lengths                                  F
 GLOBAL| Grid backend                                                       AUTO
 GLOBAL| Global print level                                                  LOW
 GLOBAL| MPI I/O enabled                                                       T
 GLOBAL| Total number of message passing processes                            16
 GLOBAL| Number of threads for this process                                    1
 GLOBAL| This output is from process                                           0
 GLOBAL| Stack size for threads created by OpenMP (OMP_STACKSIZE)        default
 GLOBAL| CPU model name                          AMD EPYC 7513 32-Core Processor

 MEMORY| system memory details [Kb]
 MEMORY|                        rank 0           min           max       average
 MEMORY| MemTotal            131832300     131832300     131832300     131832300
 MEMORY| MemFree             104627704     104627704     104627704     104627704
 MEMORY| Buffers                159304        159304        159304        159304
 MEMORY| Cached                 368936        368936        368940        368938
 MEMORY| Slab                   794772        794772        794772        794772
 MEMORY| SReclaimable           138532        138532        138532        138532
 MEMORY| MemLikelyFree       105294476     105294476     105294480     105294478


 GENERATE|  Preliminary Number of Bonds generated:                             0
 GENERATE|  Achieved consistency in connectivity generation.

 *******************************************************************************
 *******************************************************************************
 **                                                                           **
 **     #####                         ##              ##                      **
 **    ##   ##            ##          ##              ##                      **
 **   ##     ##                       ##            ######                    **
 **   ##     ##  ##   ##  ##   #####  ##  ##   ####   ##    #####    #####    **
 **   ##     ##  ##   ##  ##  ##      ## ##   ##      ##   ##   ##  ##   ##   **
 **   ##  ## ##  ##   ##  ##  ##      ####     ###    ##   ######   ######    **
 **    ##  ###   ##   ##  ##  ##      ## ##      ##   ##   ##       ##        **
 **     #######   #####   ##   #####  ##  ##  ####    ##    #####   ##        **
 **           ##                                                    ##        **
 **                                                                           **
 **                                                ... make the atoms dance   **
 **                                                                           **
 **            Copyright (C) by CP2K developers group (2000-2022)             **
 **                      J. Chem. Phys. 152, 194103 (2020)                    **
 **                                                                           **
 *******************************************************************************


 TOTAL NUMBERS AND MAXIMUM NUMBERS

  Total number of            - Atomic kinds:                                   4
                             - Atoms:                                        108
                             - Shell sets:                                   108
                             - Shells:                                       508
                             - Primitive Cartesian functions:                542
                             - Cartesian basis functions:                   1363
                             - Spherical basis functions:                   1272

  Maximum angular momentum of- Orbital basis functions:                        2
                             - Local part of the GTH pseudopotential:          2
                             - Non-local part of the GTH pseudopotential:      1


 SCF PARAMETERS         Density guess:                                    ATOMIC
                        --------------------------------------------------------
                        max_scf:                                             100
                        max_scf_history:                                       0
                        max_diis:                                              4
                        --------------------------------------------------------
                        eps_scf:                                        3.00E-07
                        eps_scf_history:                                0.00E+00
                        eps_diis:                                       1.00E-01
                        eps_eigval:                                     1.00E-05
                        --------------------------------------------------------
                        level_shift [a.u.]:                             0.000000
                        added MOs                                       100    0
                        --------------------------------------------------------
                        Mixing method:                            BROYDEN_MIXING
                                                charge density mixing in g-space
                        --------------------------------------------------------
                        Smear method:                                FERMI_DIRAC
                        Electronic temperature [K]:                        300.0
                        Electronic temperature [a.u.]:                  9.50E-04
                        Accuracy threshold:                             1.00E-10
                        --------------------------------------------------------
                        Outer loop SCF in use 
                        No variables optimised in outer loop
                        eps_scf                                         1.00E-06
                        max_scf                                               30
                        DIIS optimization
                        DIIS buffer length                                     3
                        step_size                                       5.00E-01

 -------------------------------------------------------------------------------
 -                                                                             -
 -  BSSE CALCULATION         FRAGMENT CONF: 10        FRAGMENT SUBCONF: 10     -
 -                           CHARGE =     0           MULTIPLICITY =     0     -
 -                                                                             -
 -                 ATOM INDEX                              ATOM NAME           -
 -                 ----------                              ---------           -
 -                      1                                   C                  -
 -                      2                                   C                  -
 -                      3                                   C                  -
 -                      4                                   C                  -
 -                      5                                   C                  -
 -                      6                                   C                  -
 -                      7                                   C                  -
 -                      8                                   C                  -
 -                      9                                   C                  -
 -                     10                                   C                  -
 -                     11                                   C                  -
 -                     12                                   C                  -
 -                     13                                   C                  -
 -                     14                                   C                  -
 -                     15                                   C                  -
 -                     16                                   C                  -
 -                     17                                   C                  -
 -                     18                                   C                  -
 -                     19                                   C                  -
 -                     20                                   C                  -
 -                     21                                   C                  -
 -                     22                                   C                  -
 -                     23                                   C                  -
 -                     24                                   C                  -
 -                     25                                   C                  -
 -                     26                                   C                  -
 -                     27                                   C                  -
 -                     28                                   C                  -
 -                     29                                   C                  -
 -                     30                                   C                  -
 -                     31                                   C                  -
 -                     32                                   C                  -
 -                     33                                   C                  -
 -                     34                                   C                  -
 -                     35                                   C                  -
 -                     36                                   C                  -
 -                     37                                   C                  -
 -                     38                                   C                  -
 -                     39                                   C                  -
 -                     40                                   C                  -
 -                     41                                   C                  -
 -                     42                                   C                  -
 -                     43                                   C                  -
 -                     44                                   C                  -
 -                     45                                   C                  -
 -                     46                                   C                  -
 -                     47                                   C                  -
 -                     48                                   C                  -
 -                     49                                   C                  -
 -                     50                                   C                  -
 -                     51                                   C                  -
 -                     52                                   C                  -
 -                     53                                   C                  -
 -                     54                                   C                  -
 -                     55                                   C                  -
 -                     56                                   C                  -
 -                     57                                   C                  -
 -                     58                                   C                  -
 -                     59                                   C                  -
 -                     60                                   C                  -
 -                     61                                   C                  -
 -                     62                                   C                  -
 -                     63                                   C                  -
 -                     64                                   C                  -
 -                     65                                   C                  -
 -                     66                                   C                  -
 -                     67                                   C                  -
 -                     68                                   C                  -
 -                     69                                   C                  -
 -                     70                                   C                  -
 -                     71                                   C                  -
 -                     72                                   C                  -
 -                     73                                   C                  -
 -                     74                                   C                  -
 -                     75                                   C                  -
 -                     76                                   C                  -
 -                     77                                   C                  -
 -                     78                                   C                  -
 -                     79                                   C                  -
 -                     80                                   C                  -
 -                     81                                   C                  -
 -                     82                                   C                  -
 -                     83                                   C                  -
 -                     84                                   C                  -
 -                     85                                   C                  -
 -                     86                                   C                  -
 -                     87                                   C                  -
 -                     88                                   C                  -
 -                     89                                   H                  -
 -                     90                                   H                  -
 -                     91                                   H                  -
 -                     92                                   H                  -
 -                     93                                   H                  -
 -                     94                                   H                  -
 -                     95                                   H                  -
 -                     96                                   H                  -
 -                     97                                   H                  -
 -                     98                                   H                  -
 -                     99                                   H                  -
 -                    100                                   H                  -
 -                    101                                   H                  -
 -                    102                                   H                  -
 -                    103                                   H                  -
 -                    104                                   C                  -
 -                    105                                   H                  -
 -                    106                                   O                  -
 -                    107                                   O                  -
 -------------------------------------------------------------------------------

 *******************************************************************************
 *******************************************************************************
 **                                                                           **
 **     #####                         ##              ##                      **
 **    ##   ##            ##          ##              ##                      **
 **   ##     ##                       ##            ######                    **
 **   ##     ##  ##   ##  ##   #####  ##  ##   ####   ##    #####    #####    **
 **   ##     ##  ##   ##  ##  ##      ## ##   ##      ##   ##   ##  ##   ##   **
 **   ##  ## ##  ##   ##  ##  ##      ####     ###    ##   ######   ######    **
 **    ##  ###   ##   ##  ##  ##      ## ##      ##   ##   ##       ##        **
 **     #######   #####   ##   #####  ##  ##  ####    ##    #####   ##        **
 **           ##                                                    ##        **
 **                                                                           **
 **                                                ... make the atoms dance   **
 **                                                                           **
 **            Copyright (C) by CP2K developers group (2000-2022)             **
 **                      J. Chem. Phys. 152, 194103 (2020)                    **
 **                                                                           **
 *******************************************************************************


 TOTAL NUMBERS AND MAXIMUM NUMBERS

  Total number of            - Atomic kinds:                                   3
                             - Atoms:                                        107
                             - Shell sets:                                   107
                             - Shells:                                       503
                             - Primitive Cartesian functions:                535
                             - Cartesian basis functions:                   1354
                             - Spherical basis functions:                   1263

  Maximum angular momentum of- Orbital basis functions:                        2
                             - Local part of the GTH pseudopotential:          2
                             - Non-local part of the GTH pseudopotential:      0


 SCF PARAMETERS         Density guess:                                    ATOMIC
                        --------------------------------------------------------
                        max_scf:                                             100
                        max_scf_history:                                       0
                        max_diis:                                              4
                        --------------------------------------------------------
                        eps_scf:                                        3.00E-07
                        eps_scf_history:                                0.00E+00
                        eps_diis:                                       1.00E-01
                        eps_eigval:                                     1.00E-05
                        --------------------------------------------------------
                        level_shift [a.u.]:                             0.000000
                        added MOs                                       100    0
                        --------------------------------------------------------
                        Mixing method:                            BROYDEN_MIXING
                                                charge density mixing in g-space
                        --------------------------------------------------------
                        Smear method:                                FERMI_DIRAC
                        Electronic temperature [K]:                        300.0
                        Electronic temperature [a.u.]:                  9.50E-04
                        Accuracy threshold:                             1.00E-10
                        --------------------------------------------------------
                        Outer loop SCF in use 
                        No variables optimised in outer loop
                        eps_scf                                         1.00E-06
                        max_scf                                               30
                        DIIS optimization
                        DIIS buffer length                                     3
                        step_size                                       5.00E-01

 Number of electrons:                                                        384
 Number of occupied orbitals:                                                192
 Number of molecular orbitals:                                               292

 Number of orbital functions:                                               1263
 Number of independent orbital functions:                                   1263

 Extrapolation method: initial_guess


 SCF WAVEFUNCTION OPTIMIZATION

  Step     Update method      Time    Convergence         Total energy    Change
  ------------------------------------------------------------------------------
     1 NoMix/Diag. 0.10E+00    9.1     0.99310964      -542.2830167101 -5.42E+02
     2 Broy./Diag. 0.10E+00   12.4     0.04834764      -520.7997897815  2.15E+01
     3 Broy./Diag. 0.10E+00   13.5     0.41329038      -534.7150831560 -1.39E+01
     4 Broy./Diag. 0.10E+00   13.5     0.04168672      -543.8024374725 -9.09E+00
     5 Broy./Diag. 0.10E+00   14.0     0.12172181      -546.0253946385 -2.22E+00
     6 Broy./Diag. 0.10E+00   13.1     0.00545837      -547.0763027089 -1.05E+00
     7 Broy./Diag. 0.10E+00   14.4     0.03500439      -547.2117963724 -1.35E-01
     8 Broy./Diag. 0.10E+00   12.3     0.00361317      -547.6119673196 -4.00E-01
     9 Broy./Diag. 0.10E+00   11.8     0.01698812      -547.7163502677 -1.04E-01
    10 Broy./Diag. 0.10E+00   14.9     0.00148429      -547.9396694731 -2.23E-01
    11 Broy./Diag. 0.10E+00   13.4     0.00780357      -548.0387989718 -9.91E-02
    12 Broy./Diag. 0.10E+00   93.9     0.00079766      -548.2058751852 -1.67E-01
    13 Broy./Diag. 0.10E+00   92.2     0.00481859      -548.1929659090  1.29E-02
    14 Broy./Diag. 0.10E+00   82.8     0.00024593      -548.2374573511 -4.45E-02
    15 Broy./Diag. 0.10E+00  101.7     0.00189276      -548.2256931183  1.18E-02
    16 Broy./Diag. 0.10E+00  102.6     0.00045922      -548.2305060735 -4.81E-03
    17 Broy./Diag. 0.10E+00  101.0     0.00051511      -548.2021685603  2.83E-02
    18 Broy./Diag. 0.10E+00   84.1     0.00055614      -548.1889566496  1.32E-02
    19 Broy./Diag. 0.10E+00   72.3     0.00046389      -548.2013625317 -1.24E-02
    20 Broy./Diag. 0.10E+00   87.4     0.00040240      -548.2280101083 -2.66E-02
    21 Broy./Diag. 0.10E+00   87.9     0.00024743      -548.2430551455 -1.50E-02
    22 Broy./Diag. 0.10E+00   93.6     0.00035691      -548.2484238787 -5.37E-03
    23 Broy./Diag. 0.10E+00   97.3     0.00019070      -548.2491691087 -7.45E-04
    24 Broy./Diag. 0.10E+00   98.8     0.00018737      -548.2470223039  2.15E-03
    25 Broy./Diag. 0.10E+00  100.5     0.00016579      -548.2438743597  3.15E-03
    26 Broy./Diag. 0.10E+00  108.6     0.00011252      -548.2412081600  2.67E-03
    27 Broy./Diag. 0.10E+00   92.2     0.00007249      -548.2403392777  8.69E-04
    28 Broy./Diag. 0.10E+00   97.3     0.00005371      -548.2417892007 -1.45E-03
    29 Broy./Diag. 0.10E+00   90.1     0.00005334      -548.2418281092 -3.89E-05
    30 Broy./Diag. 0.10E+00   85.0     0.00003789      -548.2408209324  1.01E-03
    31 Broy./Diag. 0.10E+00   91.4     0.00004814      -548.2410996202 -2.79E-04
    32 Broy./Diag. 0.10E+00   83.8     0.00004912      -548.2422862722 -1.19E-03
    33 Broy./Diag. 0.10E+00   84.2     0.00000704      -548.2431298263 -8.44E-04
    34 Broy./Diag. 0.10E+00   95.3     0.00001311      -548.2436605796 -5.31E-04
    35 Broy./Diag. 0.10E+00   86.0     0.00000478      -548.2439740592 -3.13E-04
    36 Broy./Diag. 0.10E+00   98.0     0.00001283      -548.2436606892  3.13E-04
    37 Broy./Diag. 0.10E+00   90.9     0.00000373      -548.2437346028 -7.39E-05
    38 Broy./Diag. 0.10E+00   93.2     0.00001071      -548.2435970419  1.38E-04
    39 Broy./Diag. 0.10E+00   88.5     0.00000338      -548.2435795541  1.75E-05
    40 Broy./Diag. 0.10E+00   79.9     0.00000669      -548.2436640549 -8.45E-05
    41 Broy./Diag. 0.10E+00   95.1     0.00000122      -548.2436494446  1.46E-05
    42 Broy./Diag. 0.10E+00   83.9     0.00000363      -548.2437386201 -8.92E-05
    43 Broy./Diag. 0.10E+00   91.9     0.00000055      -548.2437360056  2.61E-06
    44 Broy./Diag. 0.10E+00   96.3     0.00000268      -548.2436756573  6.03E-05
    45 Broy./Diag. 0.10E+00   86.2     0.00000043      -548.2436307794  4.49E-05
    46 Broy./Diag. 0.10E+00   97.8     0.00000135      -548.2436121956  1.86E-05
    47 Broy./Diag. 0.10E+00   88.2     0.00000028      -548.2436055544  6.64E-06

  *** SCF run converged in    47 steps ***


  Electronic density on regular grids:       -384.0000001406       -0.0000001406
  Core density on regular grids:              383.9999999995       -0.0000000005
  Total charge density on r-space grids:       -0.0000001410
  Total charge density g-space grids:          -0.0000001410

  Overlap energy of the core charge distribution:               0.00002123106764
  Self energy of the core charge distribution:              -1292.43570298201189
  Core Hamiltonian energy:                                    403.27466286352433
  Hartree energy:                                             509.08304470359252
  Exchange-correlation energy:                               -168.05720332439810
  Dispersion energy:                                           -0.10836052766376
  Electronic entropic energy:                                  -0.00006751850060
  Fermi energy:                                                -0.12564882468384

  Total energy:                                              -548.24360555440046

  outer SCF iter =    1 RMS gradient =   0.28E-06 energy =       -548.2436055544
  outer SCF loop converged in   1 iterations or   47 steps


 *** WARNING in qs_loc_utils.F:1500 :: User requested the calculation of ***
 *** the localized wavefunction but the section LOCALIZE was not         ***
 *** specified. Localization will not be performed!                      ***


 -------------------------------------------------------------------------------
 -                                                                             -
 -  BSSE CALCULATION         FRAGMENT CONF: 01        FRAGMENT SUBCONF: 01     -
 -                           CHARGE =     0           MULTIPLICITY =     0     -
 -                                                                             -
 -                 ATOM INDEX                              ATOM NAME           -
 -                 ----------                              ---------           -
 -                    108                                   Na                 -
 -------------------------------------------------------------------------------

 *******************************************************************************
 *******************************************************************************
 **                                                                           **
 **     #####                         ##              ##                      **
 **    ##   ##            ##          ##              ##                      **
 **   ##     ##                       ##            ######                    **
 **   ##     ##  ##   ##  ##   #####  ##  ##   ####   ##    #####    #####    **
 **   ##     ##  ##   ##  ##  ##      ## ##   ##      ##   ##   ##  ##   ##   **
 **   ##  ## ##  ##   ##  ##  ##      ####     ###    ##   ######   ######    **
 **    ##  ###   ##   ##  ##  ##      ## ##      ##   ##   ##       ##        **
 **     #######   #####   ##   #####  ##  ##  ####    ##    #####   ##        **
 **           ##                                                    ##        **
 **                                                                           **
 **                                                ... make the atoms dance   **
 **                                                                           **
 **            Copyright (C) by CP2K developers group (2000-2022)             **
 **                      J. Chem. Phys. 152, 194103 (2020)                    **
 **                                                                           **
 *******************************************************************************

 *** WARNING in qs_environment.F:1486 :: More added MOs requested than     ***
 *** available. The full set of unoccupied MOs will be used. Use           ***
 *** 'ADDED_MOS -1' to always use all available MOs and to get rid of this ***
 *** warning.                                                              ***



 TOTAL NUMBERS AND MAXIMUM NUMBERS

  Total number of            - Atomic kinds:                                   1
                             - Atoms:                                          1
                             - Shell sets:                                     1
                             - Shells:                                         5
                             - Primitive Cartesian functions:                  7
                             - Cartesian basis functions:                      9
                             - Spherical basis functions:                      9

  Maximum angular momentum of- Orbital basis functions:                        1
                             - Local part of the GTH pseudopotential:          2
                             - Non-local part of the GTH pseudopotential:      1


 SCF PARAMETERS         Density guess:                                    ATOMIC
                        --------------------------------------------------------
                        max_scf:                                             100
                        max_scf_history:                                       0
                        max_diis:                                              4
                        --------------------------------------------------------
                        eps_scf:                                        3.00E-07
                        eps_scf_history:                                0.00E+00
                        eps_diis:                                       1.00E-01
                        eps_eigval:                                     1.00E-05
                        --------------------------------------------------------
                        level_shift [a.u.]:                             0.000000
                        added MOs                                         4    0
                        --------------------------------------------------------
                        Mixing method:                            BROYDEN_MIXING
                                                charge density mixing in g-space
                        --------------------------------------------------------
                        Smear method:                                FERMI_DIRAC
                        Electronic temperature [K]:                        300.0
                        Electronic temperature [a.u.]:                  9.50E-04
                        Accuracy threshold:                             1.00E-10
                        --------------------------------------------------------
                        Outer loop SCF in use 
                        No variables optimised in outer loop
                        eps_scf                                         1.00E-06
                        max_scf                                               30
                        DIIS optimization
                        DIIS buffer length                                     3
                        step_size                                       5.00E-01

 Number of electrons:                                                          9
 Number of occupied orbitals:                                                  5
 Number of molecular orbitals:                                                 9

 Number of orbital functions:                                                  9
 Number of independent orbital functions:                                      9

 Extrapolation method: initial_guess


 SCF WAVEFUNCTION OPTIMIZATION

  Step     Update method      Time    Convergence         Total energy    Change
  ------------------------------------------------------------------------------
     1 NoMix/Diag. 0.10E+00    4.8     0.02075245       -47.1650105435 -4.72E+01
     2 Broy./Diag. 0.10E+00    6.5     0.00009764       -47.1216704763  4.33E-02
     3 Broy./Diag. 0.10E+00    7.1     0.00100857       -47.1629924935 -4.13E-02
     4 Broy./Diag. 0.10E+00    8.8     0.00002408       -47.1707379763 -7.75E-03
     5 Broy./Diag. 0.10E+00    8.0     0.00026054       -47.1707096645  2.83E-05
     6 Broy./Diag. 0.10E+00    7.0     0.00000869       -47.1708294502 -1.20E-04
     7 Broy./Diag. 0.10E+00    8.7     0.00014808       -47.1690593197  1.77E-03
     8 Broy./Diag. 0.10E+00    8.2     0.00001913       -47.1680675581  9.92E-04
     9 Broy./Diag. 0.10E+00    8.4     0.00019682       -47.1674409092  6.27E-04
    10 Broy./Diag. 0.10E+00    7.1     0.00000922       -47.1670688004  3.72E-04
    11 Broy./Diag. 0.10E+00    9.0     0.00009163       -47.1668954552  1.73E-04
    12 Broy./Diag. 0.10E+00    8.3     0.00000154       -47.1668591283  3.63E-05
    13 Broy./Diag. 0.10E+00    7.8     0.00000567       -47.1669807763 -1.22E-04
    14 Broy./Diag. 0.10E+00    8.0     0.00000083       -47.1670028246 -2.20E-05
    15 Broy./Diag. 0.10E+00    8.6     0.00001147       -47.1668249488  1.78E-04
    16 Broy./Diag. 0.10E+00    8.8     0.00000233       -47.1668039557  2.10E-05
    17 Broy./Diag. 0.10E+00    9.4     0.00000231       -47.1668547046 -5.07E-05
    18 Broy./Diag. 0.10E+00    8.4     0.00000222       -47.1669010141 -4.63E-05
    19 Broy./Diag. 0.10E+00    8.6     0.00000215       -47.1669202351 -1.92E-05
    20 Broy./Diag. 0.10E+00    7.7     0.00000186       -47.1669143771  5.86E-06
    21 Broy./Diag. 0.10E+00    9.2     0.00000232       -47.1668944606  1.99E-05
    22 Broy./Diag. 0.10E+00    9.0     0.00000273       -47.1668726288  2.18E-05
    23 Broy./Diag. 0.10E+00    4.5     0.00000365       -47.1668516050  2.10E-05
    24 Broy./Diag. 0.10E+00    7.2     0.00000072       -47.1668500747  1.53E-06
    25 Broy./Diag. 0.10E+00    8.7     0.00000031       -47.1668611042 -1.10E-05
    26 Broy./Diag. 0.10E+00    8.9     0.00000029       -47.1668550308  6.07E-06

  *** SCF run converged in    26 steps ***


  Electronic density on regular grids:         -9.0003861633       -0.0003861633
  Core density on regular grids:                9.0000000000       -0.0000000000
  Total charge density on r-space grids:       -0.0003861633
  Total charge density g-space grids:          -0.0003861633

  Overlap energy of the core charge distribution:               0.00000000000000
  Self energy of the core charge distribution:                -96.60649019442629
  Core Hamiltonian energy:                                     29.76230558454435
  Hartree energy:                                              26.72302403106750
  Exchange-correlation energy:                                 -7.04437534198136
  Dispersion energy:                                           -0.00000206850105
  Electronic entropic energy:                                  -0.00131704147593
  Fermi energy:                                                -0.09132207105241

  Total energy:                                               -47.16685503077277

  outer SCF iter =    1 RMS gradient =   0.29E-06 energy =        -47.1668550308
  outer SCF loop converged in   1 iterations or   26 steps


 *** WARNING in qs_loc_utils.F:1500 :: User requested the calculation of ***
 *** the localized wavefunction but the section LOCALIZE was not         ***
 *** specified. Localization will not be performed!                      ***


 -------------------------------------------------------------------------------
 -                                                                             -
 -  BSSE CALCULATION         FRAGMENT CONF: 11        FRAGMENT SUBCONF: 10     -
 -                           CHARGE =     0           MULTIPLICITY =     0     -
 -                                                                             -
 -                 ATOM INDEX                              ATOM NAME           -
 -                 ----------                              ---------           -
 -                      1                                   C                  -
 -                      2                                   C                  -
 -                      3                                   C                  -
 -                      4                                   C                  -
 -                      5                                   C                  -
 -                      6                                   C                  -
 -                      7                                   C                  -
 -                      8                                   C                  -
 -                      9                                   C                  -
 -                     10                                   C                  -
 -                     11                                   C                  -
 -                     12                                   C                  -
 -                     13                                   C                  -
 -                     14                                   C                  -
 -                     15                                   C                  -
 -                     16                                   C                  -
 -                     17                                   C                  -
 -                     18                                   C                  -
 -                     19                                   C                  -
 -                     20                                   C                  -
 -                     21                                   C                  -
 -                     22                                   C                  -
 -                     23                                   C                  -
 -                     24                                   C                  -
 -                     25                                   C                  -
 -                     26                                   C                  -
 -                     27                                   C                  -
 -                     28                                   C                  -
 -                     29                                   C                  -
 -                     30                                   C                  -
 -                     31                                   C                  -
 -                     32                                   C                  -
 -                     33                                   C                  -
 -                     34                                   C                  -
 -                     35                                   C                  -
 -                     36                                   C                  -
 -                     37                                   C                  -
 -                     38                                   C                  -
 -                     39                                   C                  -
 -                     40                                   C                  -
 -                     41                                   C                  -
 -                     42                                   C                  -
 -                     43                                   C                  -
 -                     44                                   C                  -
 -                     45                                   C                  -
 -                     46                                   C                  -
 -                     47                                   C                  -
 -                     48                                   C                  -
 -                     49                                   C                  -
 -                     50                                   C                  -
 -                     51                                   C                  -
 -                     52                                   C                  -
 -                     53                                   C                  -
 -                     54                                   C                  -
 -                     55                                   C                  -
 -                     56                                   C                  -
 -                     57                                   C                  -
 -                     58                                   C                  -
 -                     59                                   C                  -
 -                     60                                   C                  -
 -                     61                                   C                  -
 -                     62                                   C                  -
 -                     63                                   C                  -
 -                     64                                   C                  -
 -                     65                                   C                  -
 -                     66                                   C                  -
 -                     67                                   C                  -
 -                     68                                   C                  -
 -                     69                                   C                  -
 -                     70                                   C                  -
 -                     71                                   C                  -
 -                     72                                   C                  -
 -                     73                                   C                  -
 -                     74                                   C                  -
 -                     75                                   C                  -
 -                     76                                   C                  -
 -                     77                                   C                  -
 -                     78                                   C                  -
 -                     79                                   C                  -
 -                     80                                   C                  -
 -                     81                                   C                  -
 -                     82                                   C                  -
 -                     83                                   C                  -
 -                     84                                   C                  -
 -                     85                                   C                  -
 -                     86                                   C                  -
 -                     87                                   C                  -
 -                     88                                   C                  -
 -                     89                                   H                  -
 -                     90                                   H                  -
 -                     91                                   H                  -
 -                     92                                   H                  -
 -                     93                                   H                  -
 -                     94                                   H                  -
 -                     95                                   H                  -
 -                     96                                   H                  -
 -                     97                                   H                  -
 -                     98                                   H                  -
 -                     99                                   H                  -
 -                    100                                   H                  -
 -                    101                                   H                  -
 -                    102                                   H                  -
 -                    103                                   H                  -
 -                    104                                   C                  -
 -                    105                                   H                  -
 -                    106                                   O                  -
 -                    107                                   O                  -
 -                    108                                   Na_ghost           -
 -------------------------------------------------------------------------------

 *******************************************************************************
 *******************************************************************************
 **                                                                           **
 **     #####                         ##              ##                      **
 **    ##   ##            ##          ##              ##                      **
 **   ##     ##                       ##            ######                    **
 **   ##     ##  ##   ##  ##   #####  ##  ##   ####   ##    #####    #####    **
 **   ##     ##  ##   ##  ##  ##      ## ##   ##      ##   ##   ##  ##   ##   **
 **   ##  ## ##  ##   ##  ##  ##      ####     ###    ##   ######   ######    **
 **    ##  ###   ##   ##  ##  ##      ## ##      ##   ##   ##       ##        **
 **     #######   #####   ##   #####  ##  ##  ####    ##    #####   ##        **
 **           ##                                                    ##        **
 **                                                                           **
 **                                                ... make the atoms dance   **
 **                                                                           **
 **            Copyright (C) by CP2K developers group (2000-2022)             **
 **                      J. Chem. Phys. 152, 194103 (2020)                    **
 **                                                                           **
 *******************************************************************************


 TOTAL NUMBERS AND MAXIMUM NUMBERS

  Total number of            - Atomic kinds:                                   4
                             - Atoms:                                        108
                             - Shell sets:                                   108
                             - Shells:                                       508
                             - Primitive Cartesian functions:                542
                             - Cartesian basis functions:                   1363
                             - Spherical basis functions:                   1272

  Maximum angular momentum of- Orbital basis functions:                        2
                             - Local part of the GTH pseudopotential:          2
                             - Non-local part of the GTH pseudopotential:      0


 SCF PARAMETERS         Density guess:                                    ATOMIC
                        --------------------------------------------------------
                        max_scf:                                             100
                        max_scf_history:                                       0
                        max_diis:                                              4
                        --------------------------------------------------------
                        eps_scf:                                        3.00E-07
                        eps_scf_history:                                0.00E+00
                        eps_diis:                                       1.00E-01
                        eps_eigval:                                     1.00E-05
                        --------------------------------------------------------
                        level_shift [a.u.]:                             0.000000
                        added MOs                                       100    0
                        --------------------------------------------------------
                        Mixing method:                            BROYDEN_MIXING
                                                charge density mixing in g-space
                        --------------------------------------------------------
                        Smear method:                                FERMI_DIRAC
                        Electronic temperature [K]:                        300.0
                        Electronic temperature [a.u.]:                  9.50E-04
                        Accuracy threshold:                             1.00E-10
                        --------------------------------------------------------
                        Outer loop SCF in use 
                        No variables optimised in outer loop
                        eps_scf                                         1.00E-06
                        max_scf                                               30
                        DIIS optimization
                        DIIS buffer length                                     3
                        step_size                                       5.00E-01

 Number of electrons:                                                        384
 Number of occupied orbitals:                                                192
 Number of molecular orbitals:                                               292

 Number of orbital functions:                                               1272
 Number of independent orbital functions:                                   1272

 Extrapolation method: initial_guess


 SCF WAVEFUNCTION OPTIMIZATION

  Step     Update method      Time    Convergence         Total energy    Change
  ------------------------------------------------------------------------------
     1 NoMix/Diag. 0.10E+00   77.6     0.99409037      -542.2830167101 -5.42E+02
     2 Broy./Diag. 0.10E+00   94.8     0.04845795      -520.8053031981  2.15E+01
     3 Broy./Diag. 0.10E+00  100.5     0.41423492      -534.7163258472 -1.39E+01
     4 Broy./Diag. 0.10E+00   92.5     0.04225937      -543.8114769978 -9.10E+00
     5 Broy./Diag. 0.10E+00   75.5     0.12255941      -546.0332600339 -2.22E+00
     6 Broy./Diag. 0.10E+00   83.8     0.00573853      -547.0801452296 -1.05E+00
     7 Broy./Diag. 0.10E+00   84.1     0.03522164      -547.2143324804 -1.34E-01
     8 Broy./Diag. 0.10E+00   92.2     0.00358076      -547.6119218984 -3.98E-01
     9 Broy./Diag. 0.10E+00  101.0     0.01710219      -547.7165827746 -1.05E-01
    10 Broy./Diag. 0.10E+00   99.2     0.00144169      -547.9402266826 -2.24E-01
    11 Broy./Diag. 0.10E+00   95.9     0.00786855      -548.0393958303 -9.92E-02
    12 Broy./Diag. 0.10E+00   96.0     0.00079742      -548.2079922012 -1.69E-01
    13 Broy./Diag. 0.10E+00   95.8     0.00484122      -548.1956449038  1.23E-02
    14 Broy./Diag. 0.10E+00   96.9     0.00024390      -548.2395795671 -4.39E-02
    15 Broy./Diag. 0.10E+00   91.7     0.00197250      -548.2232055610  1.64E-02
    16 Broy./Diag. 0.10E+00   80.2     0.00040689      -548.2295977331 -6.39E-03
    17 Broy./Diag. 0.10E+00   62.0     0.00063285      -548.2034808363  2.61E-02
    18 Broy./Diag. 0.10E+00   75.8     0.00055235      -548.1907754742  1.27E-02
    19 Broy./Diag. 0.10E+00   83.1     0.00039139      -548.2022707379 -1.15E-02
    20 Broy./Diag. 0.10E+00   90.4     0.00046880      -548.2340358977 -3.18E-02
    21 Broy./Diag. 0.10E+00   95.7     0.00015103      -548.2506897883 -1.67E-02
    22 Broy./Diag. 0.10E+00   91.2     0.00055711      -548.2515649136 -8.75E-04
    23 Broy./Diag. 0.10E+00   56.7     0.00011340      -548.2477210020  3.84E-03
    24 Broy./Diag. 0.10E+00   96.3     0.00031103      -548.2435927224  4.13E-03
    25 Broy./Diag. 0.10E+00   87.9     0.00007850      -548.2435614319  3.13E-05
    26 Broy./Diag. 0.10E+00   83.5     0.00014792      -548.2423311735  1.23E-03
    27 Broy./Diag. 0.10E+00   91.9     0.00006632      -548.2432029811 -8.72E-04
    28 Broy./Diag. 0.10E+00   81.8     0.00012340      -548.2441684961 -9.66E-04
    29 Broy./Diag. 0.10E+00   83.7     0.00002762      -548.2447247667 -5.56E-04
    30 Broy./Diag. 0.10E+00   77.8     0.00006686      -548.2442266383  4.98E-04
    31 Broy./Diag. 0.10E+00   87.3     0.00001584      -548.2435891151  6.38E-04
    32 Broy./Diag. 0.10E+00   97.5     0.00004749      -548.2442690312 -6.80E-04
    33 Broy./Diag. 0.10E+00   90.7     0.00001639      -548.2446981130 -4.29E-04
    34 Broy./Diag. 0.10E+00   88.7     0.00004463      -548.2446238546  7.43E-05
    35 Broy./Diag. 0.10E+00   96.8     0.00001005      -548.2447267695 -1.03E-04
    36 Broy./Diag. 0.10E+00   95.4     0.00002001      -548.2445364975  1.90E-04
    37 Broy./Diag. 0.10E+00   88.4     0.00000394      -548.2446432821 -1.07E-04
    38 Broy./Diag. 0.10E+00   72.1     0.00000889      -548.2447410425 -9.78E-05
    39 Broy./Diag. 0.10E+00   31.8     0.00000253      -548.2448295238 -8.85E-05
    40 Broy./Diag. 0.10E+00  103.9     0.00000432      -548.2449490798 -1.20E-04
    41 Broy./Diag. 0.10E+00   87.2     0.00000185      -548.2449670120 -1.79E-05
    42 Broy./Diag. 0.10E+00   93.5     0.00000398      -548.2449244884  4.25E-05
    43 Broy./Diag. 0.10E+00   97.6     0.00000068      -548.2448734433  5.10E-05
    44 Broy./Diag. 0.10E+00   88.5     0.00000167      -548.2448233686  5.01E-05
    45 Broy./Diag. 0.10E+00  101.0     0.00000045      -548.2448000050  2.34E-05
    46 Broy./Diag. 0.10E+00   93.3     0.00000135      -548.2447818515  1.82E-05
    47 Broy./Diag. 0.10E+00   94.8     0.00000013      -548.2447656034  1.62E-05

  *** SCF run converged in    47 steps ***


  Electronic density on regular grids:       -384.0000001399       -0.0000001399
  Core density on regular grids:              383.9999999995       -0.0000000005
  Total charge density on r-space grids:       -0.0000001403
  Total charge density g-space grids:          -0.0000001403

  Overlap energy of the core charge distribution:               0.00002123106764
  Self energy of the core charge distribution:              -1292.43570298201189
  Core Hamiltonian energy:                                    403.26756173495738
  Hartree energy:                                             509.08445084471055
  Exchange-correlation energy:                               -168.05266821067156
  Dispersion energy:                                           -0.10836052766376
  Electronic entropic energy:                                  -0.00006769382118
  Fermi energy:                                                -0.12582081662941

  Total energy:                                              -548.24476560342941

  outer SCF iter =    1 RMS gradient =   0.13E-06 energy =       -548.2447656034
  outer SCF loop converged in   1 iterations or   47 steps


 *** WARNING in qs_loc_utils.F:1500 :: User requested the calculation of ***
 *** the localized wavefunction but the section LOCALIZE was not         ***
 *** specified. Localization will not be performed!                      ***


 -------------------------------------------------------------------------------
 -                                                                             -
 -  BSSE CALCULATION         FRAGMENT CONF: 11        FRAGMENT SUBCONF: 01     -
 -                           CHARGE =     0           MULTIPLICITY =     0     -
 -                                                                             -
 -                 ATOM INDEX                              ATOM NAME           -
 -                 ----------                              ---------           -
 -                      1                                   C_ghost            -
 -                      2                                   C_ghost            -
 -                      3                                   C_ghost            -
 -                      4                                   C_ghost            -
 -                      5                                   C_ghost            -
 -                      6                                   C_ghost            -
 -                      7                                   C_ghost            -
 -                      8                                   C_ghost            -
 -                      9                                   C_ghost            -
 -                     10                                   C_ghost            -
 -                     11                                   C_ghost            -
 -                     12                                   C_ghost            -
 -                     13                                   C_ghost            -
 -                     14                                   C_ghost            -
 -                     15                                   C_ghost            -
 -                     16                                   C_ghost            -
 -                     17                                   C_ghost            -
 -                     18                                   C_ghost            -
 -                     19                                   C_ghost            -
 -                     20                                   C_ghost            -
 -                     21                                   C_ghost            -
 -                     22                                   C_ghost            -
 -                     23                                   C_ghost            -
 -                     24                                   C_ghost            -
 -                     25                                   C_ghost            -
 -                     26                                   C_ghost            -
 -                     27                                   C_ghost            -
 -                     28                                   C_ghost            -
 -                     29                                   C_ghost            -
 -                     30                                   C_ghost            -
 -                     31                                   C_ghost            -
 -                     32                                   C_ghost            -
 -                     33                                   C_ghost            -
 -                     34                                   C_ghost            -
 -                     35                                   C_ghost            -
 -                     36                                   C_ghost            -
 -                     37                                   C_ghost            -
 -                     38                                   C_ghost            -
 -                     39                                   C_ghost            -
 -                     40                                   C_ghost            -
 -                     41                                   C_ghost            -
 -                     42                                   C_ghost            -
 -                     43                                   C_ghost            -
 -                     44                                   C_ghost            -
 -                     45                                   C_ghost            -
 -                     46                                   C_ghost            -
 -                     47                                   C_ghost            -
 -                     48                                   C_ghost            -
 -                     49                                   C_ghost            -
 -                     50                                   C_ghost            -
 -                     51                                   C_ghost            -
 -                     52                                   C_ghost            -
 -                     53                                   C_ghost            -
 -                     54                                   C_ghost            -
 -                     55                                   C_ghost            -
 -                     56                                   C_ghost            -
 -                     57                                   C_ghost            -
 -                     58                                   C_ghost            -
 -                     59                                   C_ghost            -
 -                     60                                   C_ghost            -
 -                     61                                   C_ghost            -
 -                     62                                   C_ghost            -
 -                     63                                   C_ghost            -
 -                     64                                   C_ghost            -
 -                     65                                   C_ghost            -
 -                     66                                   C_ghost            -
 -                     67                                   C_ghost            -
 -                     68                                   C_ghost            -
 -                     69                                   C_ghost            -
 -                     70                                   C_ghost            -
 -                     71                                   C_ghost            -
 -                     72                                   C_ghost            -
 -                     73                                   C_ghost            -
 -                     74                                   C_ghost            -
 -                     75                                   C_ghost            -
 -                     76                                   C_ghost            -
 -                     77                                   C_ghost            -
 -                     78                                   C_ghost            -
 -                     79                                   C_ghost            -
 -                     80                                   C_ghost            -
 -                     81                                   C_ghost            -
 -                     82                                   C_ghost            -
 -                     83                                   C_ghost            -
 -                     84                                   C_ghost            -
 -                     85                                   C_ghost            -
 -                     86                                   C_ghost            -
 -                     87                                   C_ghost            -
 -                     88                                   C_ghost            -
 -                     89                                   H_ghost            -
 -                     90                                   H_ghost            -
 -                     91                                   H_ghost            -
 -                     92                                   H_ghost            -
 -                     93                                   H_ghost            -
 -                     94                                   H_ghost            -
 -                     95                                   H_ghost            -
 -                     96                                   H_ghost            -
 -                     97                                   H_ghost            -
 -                     98                                   H_ghost            -
 -                     99                                   H_ghost            -
 -                    100                                   H_ghost            -
 -                    101                                   H_ghost            -
 -                    102                                   H_ghost            -
 -                    103                                   H_ghost            -
 -                    104                                   C_ghost            -
 -                    105                                   H_ghost            -
 -                    106                                   O_ghost            -
 -                    107                                   O_ghost            -
 -                    108                                   Na                 -
 -------------------------------------------------------------------------------

 *******************************************************************************
 *******************************************************************************
 **                                                                           **
 **     #####                         ##              ##                      **
 **    ##   ##            ##          ##              ##                      **
 **   ##     ##                       ##            ######                    **
 **   ##     ##  ##   ##  ##   #####  ##  ##   ####   ##    #####    #####    **
 **   ##     ##  ##   ##  ##  ##      ## ##   ##      ##   ##   ##  ##   ##   **
 **   ##  ## ##  ##   ##  ##  ##      ####     ###    ##   ######   ######    **
 **    ##  ###   ##   ##  ##  ##      ## ##      ##   ##   ##       ##        **
 **     #######   #####   ##   #####  ##  ##  ####    ##    #####   ##        **
 **           ##                                                    ##        **
 **                                                                           **
 **                                                ... make the atoms dance   **
 **                                                                           **
 **            Copyright (C) by CP2K developers group (2000-2022)             **
 **                      J. Chem. Phys. 152, 194103 (2020)                    **
 **                                                                           **
 *******************************************************************************


 TOTAL NUMBERS AND MAXIMUM NUMBERS

  Total number of            - Atomic kinds:                                   4
                             - Atoms:                                        108
                             - Shell sets:                                   108
                             - Shells:                                       508
                             - Primitive Cartesian functions:                542
                             - Cartesian basis functions:                   1363
                             - Spherical basis functions:                   1272

  Maximum angular momentum of- Orbital basis functions:                        2
                             - Local part of the GTH pseudopotential:          2
                             - Non-local part of the GTH pseudopotential:      1


 SCF PARAMETERS         Density guess:                                    ATOMIC
                        --------------------------------------------------------
                        max_scf:                                             100
                        max_scf_history:                                       0
                        max_diis:                                              4
                        --------------------------------------------------------
                        eps_scf:                                        3.00E-07
                        eps_scf_history:                                0.00E+00
                        eps_diis:                                       1.00E-01
                        eps_eigval:                                     1.00E-05
                        --------------------------------------------------------
                        level_shift [a.u.]:                             0.000000
                        added MOs                                       100    0
                        --------------------------------------------------------
                        Mixing method:                            BROYDEN_MIXING
                                                charge density mixing in g-space
                        --------------------------------------------------------
                        Smear method:                                FERMI_DIRAC
                        Electronic temperature [K]:                        300.0
                        Electronic temperature [a.u.]:                  9.50E-04
                        Accuracy threshold:                             1.00E-10
                        --------------------------------------------------------
                        Outer loop SCF in use 
                        No variables optimised in outer loop
                        eps_scf                                         1.00E-06
                        max_scf                                               30
                        DIIS optimization
                        DIIS buffer length                                     3
                        step_size                                       5.00E-01

 Number of electrons:                                                          9
 Number of occupied orbitals:                                                  5
 Number of molecular orbitals:                                               105

 Number of orbital functions:                                               1272
 Number of independent orbital functions:                                   1272

 Extrapolation method: initial_guess


 SCF WAVEFUNCTION OPTIMIZATION

  Step     Update method      Time    Convergence         Total energy    Change
  ------------------------------------------------------------------------------
     1 NoMix/Diag. 0.10E+00   85.6     0.02157505       -47.1650105435 -4.72E+01
     2 Broy./Diag. 0.10E+00   89.9     0.00013480       -47.1233711783  4.16E-02
     3 Broy./Diag. 0.10E+00   81.9     0.00137140       -47.1655930315 -4.22E-02
     4 Broy./Diag. 0.10E+00   82.6     0.00001627       -47.1748148305 -9.22E-03
     5 Broy./Diag. 0.10E+00   89.6     0.00021795       -47.1740358646  7.79E-04
     6 Broy./Diag. 0.10E+00   90.8     0.00002597       -47.1737623190  2.74E-04
     7 Broy./Diag. 0.10E+00   92.8     0.00035705       -47.1707142620  3.05E-03
     8 Broy./Diag. 0.10E+00   80.3     0.00003172       -47.1687715436  1.94E-03
     9 Broy./Diag. 0.10E+00  101.7     0.00029724       -47.1679233874  8.48E-04
    10 Broy./Diag. 0.10E+00   63.4     0.00001405       -47.1674492426  4.74E-04
    11 Broy./Diag. 0.10E+00  105.4     0.00017098       -47.1672141481  2.35E-04
    12 Broy./Diag. 0.10E+00  102.1     0.00000895       -47.1672613271 -4.72E-05
    13 Broy./Diag. 0.10E+00   97.3     0.00007297       -47.1674476490 -1.86E-04
    14 Broy./Diag. 0.10E+00   78.4     0.00000506       -47.1675187623 -7.11E-05
    15 Broy./Diag. 0.10E+00   81.0     0.00004902       -47.1672167907  3.02E-04
    16 Broy./Diag. 0.10E+00   84.6     0.00000731       -47.1671831846  3.36E-05
    17 Broy./Diag. 0.10E+00   73.8     0.00003299       -47.1672835864 -1.00E-04
    18 Broy./Diag. 0.10E+00   98.8     0.00002093       -47.1673355820 -5.20E-05
    19 Broy./Diag. 0.10E+00   97.9     0.00000249       -47.1673314558  4.13E-06
    20 Broy./Diag. 0.10E+00   51.4     0.00000526       -47.1673039619  2.75E-05
    21 Broy./Diag. 0.10E+00   18.7     0.00000407       -47.1672865110  1.75E-05
    22 Broy./Diag. 0.10E+00   21.9     0.00000617       -47.1672585528  2.80E-05
    23 Broy./Diag. 0.10E+00   16.7     0.00000375       -47.1672326169  2.59E-05
    24 Broy./Diag. 0.10E+00   23.9     0.00000117       -47.1672324123  2.05E-07
    25 Broy./Diag. 0.10E+00   14.8     0.00000308       -47.1672600867 -2.77E-05
    26 Broy./Diag. 0.10E+00   18.3     0.00000084       -47.1672654997 -5.41E-06
    27 Broy./Diag. 0.10E+00   20.3     0.00000091       -47.1672587136  6.79E-06
    28 Broy./Diag. 0.10E+00   17.2     0.00000032       -47.1672581014  6.12E-07
    29 Broy./Diag. 0.10E+00   19.9     0.00000021       -47.1672607577 -2.66E-06

  *** SCF run converged in    29 steps ***


  Electronic density on regular grids:         -9.0003862254       -0.0003862254
  Core density on regular grids:                9.0000000000       -0.0000000000
  Total charge density on r-space grids:       -0.0003862254
  Total charge density g-space grids:          -0.0003862254

  Overlap energy of the core charge distribution:               0.00000000000000
  Self energy of the core charge distribution:                -96.60649019442629
  Core Hamiltonian energy:                                     29.76034700838594
  Hartree energy:                                              26.72319921416323
  Exchange-correlation energy:                                 -7.04299767584971
  Dispersion energy:                                           -0.00000206850105
  Electronic entropic energy:                                  -0.00131704147593
  Fermi energy:                                                -0.09282623109881

  Total energy:                                               -47.16726075770379

  outer SCF iter =    1 RMS gradient =   0.21E-06 energy =        -47.1672607577
  outer SCF loop converged in   1 iterations or   29 steps


 *** WARNING in qs_loc_utils.F:1500 :: User requested the calculation of ***
 *** the localized wavefunction but the section LOCALIZE was not         ***
 *** specified. Localization will not be performed!                      ***


 -------------------------------------------------------------------------------
 -                                                                             -
 -  BSSE CALCULATION         FRAGMENT CONF: 11        FRAGMENT SUBCONF: 11     -
 -                           CHARGE =     0           MULTIPLICITY =     0     -
 -                                                                             -
 -                 ATOM INDEX                              ATOM NAME           -
 -                 ----------                              ---------           -
 -                      1                                   C                  -
 -                      2                                   C                  -
 -                      3                                   C                  -
 -                      4                                   C                  -
 -                      5                                   C                  -
 -                      6                                   C                  -
 -                      7                                   C                  -
 -                      8                                   C                  -
 -                      9                                   C                  -
 -                     10                                   C                  -
 -                     11                                   C                  -
 -                     12                                   C                  -
[...]

  outer SCF iter =    1 RMS gradient =   0.27E-06 energy =       -595.4777616579
  outer SCF loop converged in   1 iterations or   56 steps


 *** WARNING in qs_loc_utils.F:1500 :: User requested the calculation of ***
 *** the localized wavefunction but the section LOCALIZE was not         ***
 *** specified. Localization will not be performed!                      ***


 -------------------------------------------------------------------------------
 -                                                                             -
 -                                 BSSE RESULTS                                -
 -                                                                             -
 -                 CP-corrected Total energy:     -595.476196                  -
 -                                                                             -
 -                       1-body contribution:     -548.243606                  -
 -                       1-body contribution:      -47.166855                  -
 -                                                                             -
 -                       2-body contribution:       -0.065735                  -
 -                 BSSE-free interaction energy:       -0.065735               -
 -------------------------------------------------------------------------------

 -------------------------------------------------------------------------------
 -                                                                             -
 -                                DBCSR STATISTICS                             -
 -                                                                             -
 -------------------------------------------------------------------------------
 COUNTER                                    TOTAL       BLAS       SMM       ACC
 flops     9 x     9 x     9                80190     100.0%      0.0%      0.0%
 flops     5 x     9 x     9               117450     100.0%      0.0%      0.0%
 flops     9 x     5 x     9               164430     100.0%      0.0%      0.0%
 flops     9 x     9 x    32               451008     100.0%      0.0%      0.0%
 flops     9 x     9 x    68               517752     100.0%      0.0%      0.0%
 flops     9 x     9 x    73               662256     100.0%      0.0%      0.0%
 flops     5 x     5 x     9               939600     100.0%      0.0%      0.0%
 flops     5 x     9 x    32              1252800     100.0%      0.0%      0.0%
 flops     5 x     9 x    68              1438200     100.0%      0.0%      0.0%
 flops     9 x     9 x    96              1601856     100.0%      0.0%      0.0%
 flops     9 x     5 x    32              1753920     100.0%      0.0%      0.0%
 flops     5 x     9 x    73              1839600     100.0%      0.0%      0.0%
 flops     9 x     5 x    68              2013480     100.0%      0.0%      0.0%
 flops     9 x     9 x    64              2135808     100.0%      0.0%      0.0%
 flops     9 x    13 x     9              2442960     100.0%      0.0%      0.0%
 flops     9 x     5 x    73              2575440     100.0%      0.0%      0.0%
 flops    13 x     9 x     9              2626182     100.0%      0.0%      0.0%
 flops     5 x     9 x    96              4449600     100.0%      0.0%      0.0%
 flops     5 x     9 x    64              5932800     100.0%      0.0%      0.0%
 flops     9 x     5 x    96              6229440     100.0%      0.0%      0.0%
 flops     9 x     5 x    64              8305920     100.0%      0.0%      0.0%
 flops     5 x     5 x    32             10022400     100.0%      0.0%      0.0%
 flops     5 x     5 x    73             14716800     100.0%      0.0%      0.0%
 flops     5 x    13 x     9             20425860     100.0%      0.0%      0.0%
 flops    13 x     5 x     9             20425860     100.0%      0.0%      0.0%
 flops     5 x     5 x    68             23011200     100.0%      0.0%      0.0%
 flops     9 x    13 x    32             26058240     100.0%      0.0%      0.0%
 flops    13 x     9 x    32             28012608     100.0%      0.0%      0.0%
 flops     9 x    13 x    68             29914560     100.0%      0.0%      0.0%
 flops    13 x     9 x    68             32158152     100.0%      0.0%      0.0%
 flops     9 x    13 x    73             38263680     100.0%      0.0%      0.0%
 flops    13 x     9 x    73             41133456     100.0%      0.0%      0.0%
 flops     5 x     5 x    96             51840000     100.0%      0.0%      0.0%
 flops     5 x     5 x    64             69120000     100.0%      0.0%      0.0%
 flops     9 x    13 x    96             92551680     100.0%      0.0%      0.0%
 flops    13 x     9 x    96             99493056     100.0%      0.0%      0.0%
 flops     9 x    13 x    64            123402240     100.0%      0.0%      0.0%
 flops    13 x     9 x    64            132657408     100.0%      0.0%      0.0%
 flops     5 x    13 x    32            217875840     100.0%      0.0%      0.0%
 flops    13 x     5 x    32            217875840     100.0%      0.0%      0.0%
 flops     5 x    13 x    73            319926880     100.0%      0.0%      0.0%
 flops    13 x     5 x    73            319926880     100.0%      0.0%      0.0%
 flops    13 x    13 x     9            345726342     100.0%      0.0%      0.0%
 flops     5 x    13 x    68            500237920     100.0%      0.0%      0.0%
 flops    13 x     5 x    68            500237920     100.0%      0.0%      0.0%
 flops     5 x    13 x    96           1126944000     100.0%      0.0%      0.0%
 flops    13 x     5 x    96           1126944000     100.0%      0.0%      0.0%
 flops     5 x    13 x    64           1502592000     100.0%      0.0%      0.0%
 flops    13 x     5 x    64           1502592000     100.0%      0.0%      0.0%
 flops    13 x    13 x    32           3687747648     100.0%      0.0%      0.0%
 flops    13 x    13 x    73           5415054736     100.0%      0.0%      0.0%
 flops    13 x    13 x    68           8466983824     100.0%      0.0%      0.0%
 flops    13 x    13 x    96          19074556800     100.0%      0.0%      0.0%
 flops    13 x    13 x    64          25432742400     100.0%      0.0%      0.0%
 flops inhomo. stacks                           0       0.0%      0.0%      0.0%
 flops total                        70.658703E+09     100.0%      0.0%      0.0%
 flops max/rank                      4.712262E+09     100.0%      0.0%      0.0%
 matmuls inhomo. stacks                         0       0.0%      0.0%      0.0%
 matmuls total                            3770334     100.0%      0.0%      0.0%
 number of processed stacks                 53054     100.0%      0.0%      0.0%
 average stack size                                    71.1       0.0       0.0
 marketing flops                    94.610227E+09
 -------------------------------------------------------------------------------
 # multiplications                            205
 max memory usage/rank             800.370688E+06
 # max total images/rank                        1
 # max 3D layers                                1
 # MPI messages exchanged                   19680
 MPI messages size (bytes):
  total size                         2.871436E+09
  min size                           0.000000E+00
  max size                         244.992000E+03
  average size                     145.906312E+03
 MPI breakdown and total messages size (bytes):
             size <=      128                2340                        0
       128 < size <=     8192                 156                   101088
      8192 < size <=    32768                 696                 15935616
     32768 < size <=   131072                2088                169979904
    131072 < size <=  4194304               14400               2685419712
   4194304 < size <= 16777216                   0                        0
  16777216 < size                               0                        0
 -------------------------------------------------------------------------------
 -                                                                             -
 -                      DBCSR MESSAGE PASSING PERFORMANCE                      -
 -                                                                             -
 -------------------------------------------------------------------------------
 ROUTINE             CALLS      AVE VOLUME [Bytes]
 MP_Bcast               55                     12.
 MP_Allreduce         1567                      9.
 MP_Alltoall          5800                 183564.
 MP_ISend             3280                  58200.
 MP_IRecv             3280                  49719.
 -------------------------------------------------------------------------------

 -------------------------------------------------------------------------------
 -                                                                             -
 -                                DBM STATISTICS                               -
 -                                                                             -
 -------------------------------------------------------------------------------
    M  x    N  x    K                                          COUNT     PERCENT
 -------------------------------------------------------------------------------

 -------------------------------------------------------------------------------
 -                                                                             -
 -                                GRID STATISTICS                              -
 -                                                                             -
 -------------------------------------------------------------------------------
 LP    KERNEL             BACKEND                              COUNT     PERCENT
 4     collocate ortho    REF                                7432179      39.26%
 4     integrate ortho    REF                                7269727      38.41%
 3     collocate ortho    REF                                1863387       9.84%
 3     integrate ortho    REF                                1822623       9.63%
 2     collocate ortho    REF                                 270564       1.43%
 2     integrate ortho    REF                                 264619       1.40%
 0     collocate general  REF                                   5184       0.03%
 -------------------------------------------------------------------------------

 MEMORY| Estimated peak process memory [MiB]                                 764

 -------------------------------------------------------------------------------
 -                                                                             -
 -                         MESSAGE PASSING PERFORMANCE                         -
 -                                                                             -
 -------------------------------------------------------------------------------

 ROUTINE             CALLS      AVE VOLUME [Bytes]
 MP_Group               24
 MP_Bcast              675                2824643.
 MP_Allreduce         2932                   2599.
 MP_Sync               255
 MP_Alltoall          2765               20541231.
 MP_SendRecv          8760                 269615.
 MP_ISendRecv         6150                 158976.
 MP_Wait             25355
 MP_comm_split          26
 MP_ISend            16700                 613485.
 MP_IRecv            16700                 613417.
 MP_Recv                91                 307290.
 -------------------------------------------------------------------------------


 -------------------------------------------------------------------------------
 -                                                                             -
 -                           R E F E R E N C E S                               -
 -                                                                             -
 -------------------------------------------------------------------------------
 
 CP2K version 2023.1, the CP2K developers group (2023).
 CP2K is freely available from https://www.cp2k.org/ .

 Kuehne,Thomas D.; Iannuzzi,Marcella; Del Ben,Mauro;
 Rybkin,Vladimir V.; Seewald,Patrick; Stein,Frederick; Laino,Teodoro;
 Khaliullin,Rustam Z.; Schuett,Ole; Schiffmann,Florian; Golze,Dorothea;
 Wilhelm,Jan; Chulkov,Sergey; Bani-Hashemian,Mohammad Hossein;
 Weber,Valery; Borstnik,Urban; Taillefumier,Mathieu;
 Jakobovits,Alice Shoshana; Lazzaro,Alfio; Pabst,Hans; Mueller,Tiziano;
 Schade,Robert; Guidon,Manuel; Andermatt,Samuel; Holmberg,Nico;
 Schenter,Gregory K.; Hehn,Anna; Bussy,Augustin; Belleflamme,Fabian;
 Tabacchi,Gloria; Gloess,Andreas; Lass,Michael; Bethune,Iain;
 Mundy,Christopher J.; Plessl,Christian; Watkins,Matt;
 VandeVondele,Joost; Krack,Matthias; Hutter,Juerg. 
 The Journal of Chemical Physics, 152 (19), (2020). 
 CP2K: An electronic structure and molecular dynamics software package -
 Quickstep: Efficient and accurate electronic structure calculations.
 https://doi.org/10.1063/5.0007045

 Goerigk, Lars; Hansen, Andreas; Bauer, Christoph; Ehrlich, Stephan;
 Najibi, Asim; Grimme, Stefan. , 19 (48), (2017). 
 A look at the density functional theory zoo with the advanced GMTKN55 database
 for general main group thermochemistry, kinetics and noncovalent interactions.
 https://doi.org/10.1039/C7CP04913G

 Schuett, Ole; Messmer, Peter; Hutter, Juerg; VandeVondele, Joost. 
 Electronic Structure Calculations on Graphics Processing Units, John
 Wiley & Sons, Ltd, 173-190 (2016). 
 GPU-Accelerated Sparse Matrix-Matrix Multiplication for
 Linear Scaling Density Functional Theory.
 https://doi.org/10.1002/9781118670712.ch8

 Borstnik, U; VandeVondele, J; Weber, V; Hutter, J. 
 PARALLEL COMPUTING, 40 (5-6), 47-58 (2014). 
 Sparse matrix multiplication: The distributed block-compressed sparse
 row library.
 https://doi.org/10.1016/j.parco.2014.03.012

 Hutter, J; Iannuzzi, M; Schiffmann, F; VandeVondele, J. 
 WIREs Comput Mol Sci., 4 (1), 15-25 (2014). 
 CP2K: atomistic simulations of condensed matter systems.
 https://doi.org/10.1002/wcms.1159

 Marek, A; Blum, V; Johanni, R; Havu, V; Lang, B; Auckenthaler, T;
 Heinecke, A; Bungartz, H; Lederer, H. 
 Journal of Physics: Condensed Matter, 26 (21), (2014). 
 The ELPA library: scalable parallel eigenvalue solutions for
 electronic structure
 theory and computational science.
 https://doi.org/10.1088/0953-8984/26/21/213201

 Grimme, S; Ehrlich, S; Goerigk, L. 
 JOURNAL OF COMPUTATIONAL CHEMISTRY, 32, 1456 (2011). 
 Effect of the damping function in dispersion corrected density functional theory.
 https://doi.org/10.1002/jcc.21759

 Grimme, S; Antony, J; Ehrlich, S; Krieg, H. 
 JOURNAL OF CHEMICAL PHYSICS, 132 (15), 154104 (2010). 
 A consistent and accurate ab initio parametrization of density
 functional dispersion correction (DFT-D) for the 94 elements H-Pu.
 https://doi.org/10.1063/1.3382344

 VandeVondele, J; Hutter, J. 
 JOURNAL OF CHEMICAL PHYSICS, 127 (11), 114105 (2007). 
 Gaussian basis sets for accurate calculations on molecular systems in
 gas and condensed phases.
 https://doi.org/10.1063/1.2770708

 Krack, M. 
 THEORETICAL CHEMISTRY ACCOUNTS, 114 (1-3), 145-152 (2005). 
 Pseudopotentials for H to Kr optimized for gradient-corrected
 exchange-correlation functionals.
 https://doi.org/10.1007/s00214-005-0655-y

 VandeVondele, J; Krack, M; Mohamed, F; Parrinello, M; Chassaing, T;
 Hutter, J. COMPUTER PHYSICS COMMUNICATIONS, 167 (2), 103-128 (2005). 
 QUICKSTEP: Fast and accurate density functional calculations using a
 mixed Gaussian and plane waves approach.
 https://doi.org/10.1016/j.cpc.2004.12.014

 Frigo, M; Johnson, SG. 
 PROCEEDINGS OF THE IEEE, 93 (2), 216-231 (2005). 
 The design and implementation of FFTW3.
 https://doi.org/10.1109/JPROC.2004.840301

 Hartwigsen, C; Goedecker, S; Hutter, J. 
 PHYSICAL REVIEW B, 58 (7), 3641-3662 (1998). 
 Relativistic separable dual-space Gaussian pseudopotentials from H to Rn.
 https://doi.org/10.1103/PhysRevB.58.3641

 Lippert, G; Hutter, J; Parrinello, M. 
 MOLECULAR PHYSICS, 92 (3), 477-487 (1997). 
 A hybrid Gaussian and plane wave density functional scheme.
 https://doi.org/10.1080/002689797170220

 Perdew, JP; Burke, K; Ernzerhof, M. 
 PHYSICAL REVIEW LETTERS, 77 (18), 3865-3868 (1996). 
 Generalized gradient approximation made simple.
 https://doi.org/10.1103/PhysRevLett.77.3865

 Goedecker, S; Teter, M; Hutter, J. 
 PHYSICAL REVIEW B, 54 (3), 1703-1710 (1996). 
 Separable dual-space Gaussian pseudopotentials.
 https://doi.org/10.1103/PhysRevB.54.1703


 -------------------------------------------------------------------------------
 -                                                                             -
 -                                T I M I N G                                  -
 -                                                                             -
 -------------------------------------------------------------------------------
 SUBROUTINE                       CALLS  ASD         SELF TIME        TOTAL TIME
                                MAXIMUM       AVERAGE  MAXIMUM  AVERAGE  MAXIMUM
 CP2K                                 1  1.0     3.25     3.33 10380.20 10380.21
 qs_energies                          5  2.0     0.00     0.00 10351.55 10351.68
 scf_env_do_scf                       5  3.0     0.00     0.00 10308.76 10308.96
 scf_env_do_scf_inner_loop          205  4.0     0.01     0.02 10308.76 10308.96
 qs_scf_new_mos                     205  5.0     0.01     0.02  8954.12  8955.01
 eigensolver                        205  6.0     0.02     0.03  8693.79  8696.10
 cp_fm_diag_elpa                    179  7.0     0.00     0.00  8043.32  8046.85
 cp_fm_diag_elpa_base               179  8.0  8034.21  8037.30  8036.87  8037.51
 qs_ks_update_qs_env                205  5.0     0.00     0.00   664.97   667.94
 rebuild_ks_matrix                  205  6.0     0.00     0.00   655.29   657.67
 qs_ks_build_kohn_sham_matrix       205  7.0     0.05     0.07   655.29   657.67
 cp_fm_triangular_multiply          615  7.0   591.11   596.54   591.11   596.54
 qs_rho_update_rho_low              210  5.0     0.00     0.00   552.75   554.07
 calculate_rho_elec                 210  6.0     0.96     1.19   552.75   554.06
 rs_pw_transfer                    1665  9.5     0.03     0.05   498.28   547.14
 density_rs2pw                      210  7.0     0.02     0.03   455.33   509.14
 sum_up_and_integrate               205  8.0     1.43     1.68   477.92   480.28
 integrate_v_rspace                 205  9.0     0.01     0.03   476.49   478.60
 mp_alltoall_d11v                  2905  9.3   272.57   320.23   272.57   320.23
 grid_collocate_task_list           210  7.0    82.94   307.60    82.94   307.60
 mp_waitany                       16700 11.5   256.30   307.50   256.30   307.50
 grid_integrate_task_list           205 10.0    73.50   295.94    73.50   295.94
 rs_pw_transfer_RS2PW_150           215  9.0     2.55     3.01   235.42   284.21
 rs_gather_matrices                 205 10.0     0.11     0.14   225.04   272.79
 pw_transfer                       2690  8.9     0.40     0.48   194.34   209.04
 -------------------------------------------------------------------------------

 The number of warnings for this run is : 6
 
 -------------------------------------------------------------------------------
  **** **** ******  **  PROGRAM ENDED AT                 2025-09-09 13:58:28.831
 ***** ** ***  *** **   PROGRAM RAN ON                                sebnode129
 **    ****   ******    PROGRAM RAN BY                                    luehrs
 ***** **    ** ** **   PROGRAM PROCESS ID                               2260571
  **** **  *******  **  PROGRAM STOPPED IN /home/luehrs/PhD/Sodium_batteries/Sod
                                           ium-graphene-functional_groups/Carbox
                                           yl/Carboxyl_hydrogenated_edges_armcha
                                           ir
