 DBCSR| CPU Multiplication driver                                           BLAS (U)
 DBCSR| Multrec recursion limit                                              512 (U)
 DBCSR| Multiplication stack size                                           1000 (D)
 DBCSR| Maximum elements for images                                    UNLIMITED (U)
 DBCSR| Multiplicative factor virtual images                                   1 (U)
 DBCSR| Use multiplication densification                                       T (D)
 DBCSR| Multiplication size stacks                                             3 (U)
 DBCSR| Use memory pool for CPU allocation                                     F (U)
 DBCSR| Number of 3D layers                                               SINGLE (U)
 DBCSR| Use MPI memory allocation                                              F (U)
 DBCSR| Use RMA algorithm                                                      F (U)
 DBCSR| Use Communication thread                                               T (U)
 DBCSR| Communication thread load                                             87 (D)
 DBCSR| MPI: My process id                                                     0
 DBCSR| MPI: Number of processes                                              16
 DBCSR| OMP: Current number of threads                                         1
 DBCSR| OMP: Max number of threads                                             1
 DBCSR| Split modifier for TAS multiplication algorithm                  1.0E+00 (U)


  **** **** ******  **  PROGRAM STARTED AT               2025-06-14 22:17:14.464
 ***** ** ***  *** **   PROGRAM STARTED ON                            sebnode133
 **    ****   ******    PROGRAM STARTED BY                                luehrs
 ***** **    ** ** **   PROGRAM PROCESS ID                               1807052
  **** **  *******  **  PROGRAM STARTED IN /home/luehrs/PhD/Sodium_batteries/Sod
                                           ium-graphene-curvature/Sinus_surface/
                                           Sinus_5

 CP2K| version string:                                       CP2K version 2023.1
 CP2K| source code revision number:                                  git:b888bd8
 CP2K| cp2kflags: omp libint fftw3 libxc elpa parallel scalapack spglib         
 CP2K| is freely available from                            https://www.cp2k.org/
 CP2K| Program compiled at                          Tue Jan 10 19:52:03 UTC 2023
 CP2K| Program compiled on                                            x86-ubc-01
 CP2K| Program compiled for                                Linux-x86_64-gfortran
 CP2K| Data directory path                                       /usr/share/cp2k
 CP2K| Input file name                                         input.zig-zag.inp

 GLOBAL| Force Environment number                                              1
 GLOBAL| Basis set file name                                      ./BASIS_MOLOPT
 GLOBAL| Potential file name                                    ./GTH_POTENTIALS
 GLOBAL| MM Potential file name                                     MM_POTENTIAL
 GLOBAL| Coordinate file name                                  sinus_relaxed.xyz
 GLOBAL| Method name                                                        CP2K
 GLOBAL| Project name                                 graphene_sinus_Sodium_BSSE
 GLOBAL| Run type                                                           BSSE
 GLOBAL| FFT library                                                       FFTW3
 GLOBAL| Diagonalization library                                            ELPA
 GLOBAL| DGEMM library                                                      BLAS
 GLOBAL| Minimum number of eigenvectors for ELPA usage                        16
 GLOBAL| Orthonormality check for eigenvectors                          DISABLED
 GLOBAL| Matrix multiplication library                                 ScaLAPACK
 GLOBAL| All-to-all communication in single precision                          F
 GLOBAL| FFTs using library dependent lengths                                  F
 GLOBAL| Grid backend                                                       AUTO
 GLOBAL| Global print level                                                  LOW
 GLOBAL| MPI I/O enabled                                                       T
 GLOBAL| Total number of message passing processes                            16
 GLOBAL| Number of threads for this process                                    1
 GLOBAL| This output is from process                                           0
 GLOBAL| Stack size for threads created by OpenMP (OMP_STACKSIZE)        default
 GLOBAL| CPU model name                          AMD EPYC 7513 32-Core Processor

 MEMORY| system memory details [Kb]
 MEMORY|                        rank 0           min           max       average
 MEMORY| MemTotal            131828104     131828104     131828104     131828104
 MEMORY| MemFree             113868272     113868272     113868272     113868272
 MEMORY| Buffers                252752        252752        252752        252752
 MEMORY| Cached                1399504       1399500       1399504       1399500
 MEMORY| Slab                   849424        849424        849424        849424
 MEMORY| SReclaimable           200072        200072        200072        200072
 MEMORY| MemLikelyFree       115720600     115720596     115720600     115720596


 GENERATE|  Preliminary Number of Bonds generated:                             0
 GENERATE|  Achieved consistency in connectivity generation.

 *******************************************************************************
 *******************************************************************************
 **                                                                           **
 **     #####                         ##              ##                      **
 **    ##   ##            ##          ##              ##                      **
 **   ##     ##                       ##            ######                    **
 **   ##     ##  ##   ##  ##   #####  ##  ##   ####   ##    #####    #####    **
 **   ##     ##  ##   ##  ##  ##      ## ##   ##      ##   ##   ##  ##   ##   **
 **   ##  ## ##  ##   ##  ##  ##      ####     ###    ##   ######   ######    **
 **    ##  ###   ##   ##  ##  ##      ## ##      ##   ##   ##       ##        **
 **     #######   #####   ##   #####  ##  ##  ####    ##    #####   ##        **
 **           ##                                                    ##        **
 **                                                                           **
 **                                                ... make the atoms dance   **
 **                                                                           **
 **            Copyright (C) by CP2K developers group (2000-2022)             **
 **                      J. Chem. Phys. 152, 194103 (2020)                    **
 **                                                                           **
 *******************************************************************************


 TOTAL NUMBERS AND MAXIMUM NUMBERS

  Total number of            - Atomic kinds:                                   2
                             - Atoms:                                        193
                             - Shell sets:                                   193
                             - Shells:                                       965
                             - Primitive Cartesian functions:                967
                             - Cartesian basis functions:                   2697
                             - Spherical basis functions:                   2505

  Maximum angular momentum of- Orbital basis functions:                        2
                             - Local part of the GTH pseudopotential:          2
                             - Non-local part of the GTH pseudopotential:      1


 SCF PARAMETERS         Density guess:                                    ATOMIC
                        --------------------------------------------------------
                        max_scf:                                             300
                        max_scf_history:                                       0
                        max_diis:                                              4
                        --------------------------------------------------------
                        eps_scf:                                        3.00E-07
                        eps_scf_history:                                0.00E+00
                        eps_diis:                                       1.00E-01
                        eps_eigval:                                     1.00E-05
                        --------------------------------------------------------
                        level_shift [a.u.]:                             0.000000
                        added MOs                                       100    0
                        --------------------------------------------------------
                        Mixing method:                            BROYDEN_MIXING
                                                charge density mixing in g-space
                        --------------------------------------------------------
                        Smear method:                                FERMI_DIRAC
                        Electronic temperature [K]:                        300.0
                        Electronic temperature [a.u.]:                  9.50E-04
                        Accuracy threshold:                             1.00E-10
                        --------------------------------------------------------
                        Outer loop SCF in use 
                        No variables optimised in outer loop
                        eps_scf                                         1.00E-06
                        max_scf                                              300
                        DIIS optimization
                        DIIS buffer length                                     3
                        step_size                                       5.00E-01

 -------------------------------------------------------------------------------
 -                                                                             -
 -  BSSE CALCULATION         FRAGMENT CONF: 10        FRAGMENT SUBCONF: 10     -
 -                           CHARGE =     0           MULTIPLICITY =     0     -
 -                                                                             -
 -                 ATOM INDEX                              ATOM NAME           -
 -                 ----------                              ---------           -
 -                      1                                   C                  -
 -                      2                                   C                  -
 -                      3                                   C                  -
 -                      4                                   C                  -
 -                      5                                   C                  -
 -                      6                                   C                  -
 -                      7                                   C                  -
 -                      8                                   C                  -
 -                      9                                   C                  -
 -                     10                                   C                  -
 -                     11                                   C                  -
 -                     12                                   C                  -
 -                     13                                   C                  -
 -                     14                                   C                  -
 -                     15                                   C                  -
 -                     16                                   C                  -
 -                     17                                   C                  -
 -                     18                                   C                  -
 -                     19                                   C                  -
 -                     20                                   C                  -
 -                     21                                   C                  -
 -                     22                                   C                  -
 -                     23                                   C                  -
 -                     24                                   C                  -
 -                     25                                   C                  -
 -                     26                                   C                  -
 -                     27                                   C                  -
 -                     28                                   C                  -
 -                     29                                   C                  -
 -                     30                                   C                  -
 -                     31                                   C                  -
 -                     32                                   C                  -
 -                     33                                   C                  -
 -                     34                                   C                  -
 -                     35                                   C                  -
 -                     36                                   C                  -
 -                     37                                   C                  -
 -                     38                                   C                  -
 -                     39                                   C                  -
 -                     40                                   C                  -
 -                     41                                   C                  -
 -                     42                                   C                  -
 -                     43                                   C                  -
 -                     44                                   C                  -
 -                     45                                   C                  -
 -                     46                                   C                  -
 -                     47                                   C                  -
 -                     48                                   C                  -
 -                     49                                   C                  -
 -                     50                                   C                  -
 -                     51                                   C                  -
 -                     52                                   C                  -
 -                     53                                   C                  -
 -                     54                                   C                  -
 -                     55                                   C                  -
 -                     56                                   C                  -
 -                     57                                   C                  -
 -                     58                                   C                  -
 -                     59                                   C                  -
 -                     60                                   C                  -
 -                     61                                   C                  -
 -                     62                                   C                  -
 -                     63                                   C                  -
 -                     64                                   C                  -
 -                     65                                   C                  -
 -                     66                                   C                  -
 -                     67                                   C                  -
 -                     68                                   C                  -
 -                     69                                   C                  -
 -                     70                                   C                  -
 -                     71                                   C                  -
 -                     72                                   C                  -
 -                     73                                   C                  -
 -                     74                                   C                  -
 -                     75                                   C                  -
 -                     76                                   C                  -
 -                     77                                   C                  -
 -                     78                                   C                  -
 -                     79                                   C                  -
 -                     80                                   C                  -
 -                     81                                   C                  -
 -                     82                                   C                  -
 -                     83                                   C                  -
 -                     84                                   C                  -
 -                     85                                   C                  -
 -                     86                                   C                  -
 -                     87                                   C                  -
 -                     88                                   C                  -
 -                     89                                   C                  -
 -                     90                                   C                  -
 -                     91                                   C                  -
 -                     92                                   C                  -
 -                     93                                   C                  -
 -                     94                                   C                  -
 -                     95                                   C                  -
 -                     96                                   C                  -
 -                     97                                   C                  -
 -                     98                                   C                  -
 -                     99                                   C                  -
 -                    100                                   C                  -
 -                    101                                   C                  -
 -                    102                                   C                  -
 -                    103                                   C                  -
 -                    104                                   C                  -
 -                    105                                   C                  -
 -                    106                                   C                  -
 -                    107                                   C                  -
 -                    108                                   C                  -
 -                    109                                   C                  -
 -                    110                                   C                  -
 -                    111                                   C                  -
 -                    112                                   C                  -
 -                    113                                   C                  -
 -                    114                                   C                  -
 -                    115                                   C                  -
 -                    116                                   C                  -
 -                    117                                   C                  -
 -                    118                                   C                  -
 -                    119                                   C                  -
 -                    120                                   C                  -
 -                    121                                   C                  -
 -                    122                                   C                  -
 -                    123                                   C                  -
 -                    124                                   C                  -
 -                    125                                   C                  -
 -                    126                                   C                  -
 -                    127                                   C                  -
 -                    128                                   C                  -
 -                    129                                   C                  -
 -                    130                                   C                  -
 -                    131                                   C                  -
 -                    132                                   C                  -
 -                    133                                   C                  -
 -                    134                                   C                  -
 -                    135                                   C                  -
 -                    136                                   C                  -
 -                    137                                   C                  -
 -                    138                                   C                  -
 -                    139                                   C                  -
 -                    140                                   C                  -
 -                    141                                   C                  -
 -                    142                                   C                  -
 -                    143                                   C                  -
 -                    144                                   C                  -
 -                    145                                   C                  -
 -                    146                                   C                  -
 -                    147                                   C                  -
 -                    148                                   C                  -
 -                    149                                   C                  -
 -                    150                                   C                  -
 -                    151                                   C                  -
 -                    152                                   C                  -
 -                    153                                   C                  -
 -                    154                                   C                  -
 -                    155                                   C                  -
 -                    156                                   C                  -
 -                    157                                   C                  -
 -                    158                                   C                  -
 -                    159                                   C                  -
 -                    160                                   C                  -
 -                    161                                   C                  -
 -                    162                                   C                  -
 -                    163                                   C                  -
 -                    164                                   C                  -
 -                    165                                   C                  -
 -                    166                                   C                  -
 -                    167                                   C                  -
 -                    168                                   C                  -
 -                    169                                   C                  -
 -                    170                                   C                  -
 -                    171                                   C                  -
 -                    172                                   C                  -
 -                    173                                   C                  -
 -                    174                                   C                  -
 -                    175                                   C                  -
 -                    176                                   C                  -
 -                    177                                   C                  -
 -                    178                                   C                  -
 -                    179                                   C                  -
 -                    180                                   C                  -
 -                    181                                   C                  -
 -                    182                                   C                  -
 -                    183                                   C                  -
 -                    184                                   C                  -
 -                    185                                   C                  -
 -                    186                                   C                  -
 -                    187                                   C                  -
 -                    188                                   C                  -
 -                    189                                   C                  -
 -                    190                                   C                  -
 -                    191                                   C                  -
 -                    192                                   C                  -
 -------------------------------------------------------------------------------

 *******************************************************************************
 *******************************************************************************
 **                                                                           **
 **     #####                         ##              ##                      **
 **    ##   ##            ##          ##              ##                      **
 **   ##     ##                       ##            ######                    **
 **   ##     ##  ##   ##  ##   #####  ##  ##   ####   ##    #####    #####    **
 **   ##     ##  ##   ##  ##  ##      ## ##   ##      ##   ##   ##  ##   ##   **
 **   ##  ## ##  ##   ##  ##  ##      ####     ###    ##   ######   ######    **
 **    ##  ###   ##   ##  ##  ##      ## ##      ##   ##   ##       ##        **
 **     #######   #####   ##   #####  ##  ##  ####    ##    #####   ##        **
 **           ##                                                    ##        **
 **                                                                           **
 **                                                ... make the atoms dance   **
 **                                                                           **
 **            Copyright (C) by CP2K developers group (2000-2022)             **
 **                      J. Chem. Phys. 152, 194103 (2020)                    **
 **                                                                           **
 *******************************************************************************


 TOTAL NUMBERS AND MAXIMUM NUMBERS

  Total number of            - Atomic kinds:                                   1
                             - Atoms:                                        192
                             - Shell sets:                                   192
                             - Shells:                                       960
                             - Primitive Cartesian functions:                960
                             - Cartesian basis functions:                   2688
                             - Spherical basis functions:                   2496

  Maximum angular momentum of- Orbital basis functions:                        2
                             - Local part of the GTH pseudopotential:          2
                             - Non-local part of the GTH pseudopotential:      0


 SCF PARAMETERS         Density guess:                                    ATOMIC
                        --------------------------------------------------------
                        max_scf:                                             300
                        max_scf_history:                                       0
                        max_diis:                                              4
                        --------------------------------------------------------
                        eps_scf:                                        3.00E-07
                        eps_scf_history:                                0.00E+00
                        eps_diis:                                       1.00E-01
                        eps_eigval:                                     1.00E-05
                        --------------------------------------------------------
                        level_shift [a.u.]:                             0.000000
                        added MOs                                       100    0
                        --------------------------------------------------------
                        Mixing method:                            BROYDEN_MIXING
                                                charge density mixing in g-space
                        --------------------------------------------------------
                        Smear method:                                FERMI_DIRAC
                        Electronic temperature [K]:                        300.0
                        Electronic temperature [a.u.]:                  9.50E-04
                        Accuracy threshold:                             1.00E-10
                        --------------------------------------------------------
                        Outer loop SCF in use 
                        No variables optimised in outer loop
                        eps_scf                                         1.00E-06
                        max_scf                                              300
                        DIIS optimization
                        DIIS buffer length                                     3
                        step_size                                       5.00E-01

 Number of electrons:                                                        768
 Number of occupied orbitals:                                                384
 Number of molecular orbitals:                                               484

 Number of orbital functions:                                               2496
 Number of independent orbital functions:                                   2496

 Extrapolation method: initial_guess


 SCF WAVEFUNCTION OPTIMIZATION

  Step     Update method      Time    Convergence         Total energy    Change
  ------------------------------------------------------------------------------
     1 NoMix/Diag. 0.10E+00    6.2     0.92565397     -1085.8788232840 -1.09E+03
     2 Broy./Diag. 0.10E+00    7.7     0.00229284     -1044.4456498034  4.14E+01
     3 Broy./Diag. 0.10E+00    7.8     0.02550210     -1076.5178871702 -3.21E+01
     4 Broy./Diag. 0.10E+00    7.8     0.00033527     -1090.1758218599 -1.37E+01
     5 Broy./Diag. 0.10E+00    7.8     0.00223445     -1090.7594770517 -5.84E-01
     6 Broy./Diag. 0.10E+00    7.9     0.00009741     -1091.9328080710 -1.17E+00
     7 Broy./Diag. 0.10E+00   10.2     0.00075284     -1092.4537675323 -5.21E-01
     8 Broy./Diag. 0.10E+00   39.8     0.00004453     -1092.8179533659 -3.64E-01
     9 Broy./Diag. 0.10E+00   49.2     0.00051384     -1092.9919909490 -1.74E-01
    10 Broy./Diag. 0.10E+00  149.9     0.00004520     -1093.2121530025 -2.20E-01
    11 Broy./Diag. 0.10E+00  143.3     0.00042216     -1093.1676000000  4.46E-02
    12 Broy./Diag. 0.10E+00  167.3     0.00002756     -1093.2474924994 -7.99E-02
    13 Broy./Diag. 0.10E+00  140.7     0.00028664     -1093.2923257726 -4.48E-02
    14 Broy./Diag. 0.10E+00  149.7     0.00003961     -1093.3362274615 -4.39E-02
    15 Broy./Diag. 0.10E+00  123.4     0.00024142     -1093.3642093139 -2.80E-02
    16 Broy./Diag. 0.10E+00  167.1     0.00005987     -1093.3790282323 -1.48E-02
    17 Broy./Diag. 0.10E+00  141.4     0.00006223     -1093.3604922633  1.85E-02
    18 Broy./Diag. 0.10E+00  127.7     0.00001809     -1093.3496551775  1.08E-02
    19 Broy./Diag. 0.10E+00  143.8     0.00003805     -1093.3476109157  2.04E-03
    20 Broy./Diag. 0.10E+00  164.3     0.00000504     -1093.3522069694 -4.60E-03
    21 Broy./Diag. 0.10E+00  156.6     0.00001055     -1093.3548891717 -2.68E-03
    22 Broy./Diag. 0.10E+00  156.8     0.00000290     -1093.3561644790 -1.28E-03
    23 Broy./Diag. 0.10E+00  149.1     0.00000546     -1093.3601232418 -3.96E-03
    24 Broy./Diag. 0.10E+00  167.9     0.00001094     -1093.3611989663 -1.08E-03
    25 Broy./Diag. 0.10E+00  136.3     0.00001588     -1093.3609856888  2.13E-04
    26 Broy./Diag. 0.10E+00  154.8     0.00000582     -1093.3633659264 -2.38E-03
    27 Broy./Diag. 0.10E+00  154.6     0.00002235     -1093.3663977239 -3.03E-03
    28 Broy./Diag. 0.10E+00  151.6     0.00000300     -1093.3700658991 -3.67E-03
    29 Broy./Diag. 0.10E+00  158.4     0.00001492     -1093.3713344012 -1.27E-03
    30 Broy./Diag. 0.10E+00  148.4     0.00000101     -1093.3720092281 -6.75E-04
    31 Broy./Diag. 0.10E+00  140.3     0.00000431     -1093.3716582137  3.51E-04
    32 Broy./Diag. 0.10E+00  147.9     0.00000120     -1093.3715332467  1.25E-04
    33 Broy./Diag. 0.10E+00  140.4     0.00000199     -1093.3715484891 -1.52E-05
    34 Broy./Diag. 0.10E+00  137.3     0.00000066     -1093.3716280266 -7.95E-05
    35 Broy./Diag. 0.10E+00  130.2     0.00000087     -1093.3715461010  8.19E-05
    36 Broy./Diag. 0.10E+00  151.0     0.00000050     -1093.3715848109 -3.87E-05
    37 Broy./Diag. 0.10E+00  169.2     0.00000112     -1093.3717222110 -1.37E-04
    38 Broy./Diag. 0.10E+00  149.9     0.00000029     -1093.3716810607  4.12E-05

  *** SCF run converged in    38 steps ***


  Electronic density on regular grids:       -768.0000000000        0.0000000000
  Core density on regular grids:              767.9999999993       -0.0000000007
  Total charge density on r-space grids:       -0.0000000006
  Total charge density g-space grids:          -0.0000000006

  Overlap energy of the core charge distribution:               0.00002990120435
  Self energy of the core charge distribution:              -2560.32152193892080
  Core Hamiltonian energy:                                    800.95579039725408
  Hartree energy:                                            1001.40904624104212
  Exchange-correlation energy:                               -335.16857296532885
  Dispersion energy:                                           -0.24645252085367
  Electronic entropic energy:                                  -0.00000017513151
  Fermi energy:                                                -0.10927218732146

  Total energy:                                             -1093.37168106073409

  outer SCF iter =    1 RMS gradient =   0.29E-06 energy =      -1093.3716810607
  outer SCF loop converged in   1 iterations or   38 steps


 *** WARNING in qs_loc_utils.F:1500 :: User requested the calculation of ***
 *** the localized wavefunction but the section LOCALIZE was not         ***
 *** specified. Localization will not be performed!                      ***


 -------------------------------------------------------------------------------
 -                                                                             -
 -  BSSE CALCULATION         FRAGMENT CONF: 01        FRAGMENT SUBCONF: 01     -
 -                           CHARGE =     0           MULTIPLICITY =     0     -
 -                                                                             -
 -                 ATOM INDEX                              ATOM NAME           -
 -                 ----------                              ---------           -
 -                    193                                   Na                 -
 -------------------------------------------------------------------------------

 *******************************************************************************
 *******************************************************************************
 **                                                                           **
 **     #####                         ##              ##                      **
 **    ##   ##            ##          ##              ##                      **
 **   ##     ##                       ##            ######                    **
 **   ##     ##  ##   ##  ##   #####  ##  ##   ####   ##    #####    #####    **
 **   ##     ##  ##   ##  ##  ##      ## ##   ##      ##   ##   ##  ##   ##   **
 **   ##  ## ##  ##   ##  ##  ##      ####     ###    ##   ######   ######    **
 **    ##  ###   ##   ##  ##  ##      ## ##      ##   ##   ##       ##        **
 **     #######   #####   ##   #####  ##  ##  ####    ##    #####   ##        **
 **           ##                                                    ##        **
 **                                                                           **
 **                                                ... make the atoms dance   **
 **                                                                           **
 **            Copyright (C) by CP2K developers group (2000-2022)             **
 **                      J. Chem. Phys. 152, 194103 (2020)                    **
 **                                                                           **
 *******************************************************************************

 *** WARNING in qs_environment.F:1486 :: More added MOs requested than     ***
 *** available. The full set of unoccupied MOs will be used. Use           ***
 *** 'ADDED_MOS -1' to always use all available MOs and to get rid of this ***
 *** warning.                                                              ***



 TOTAL NUMBERS AND MAXIMUM NUMBERS

  Total number of            - Atomic kinds:                                   1
                             - Atoms:                                          1
                             - Shell sets:                                     1
                             - Shells:                                         5
                             - Primitive Cartesian functions:                  7
                             - Cartesian basis functions:                      9
                             - Spherical basis functions:                      9

  Maximum angular momentum of- Orbital basis functions:                        1
                             - Local part of the GTH pseudopotential:          2
                             - Non-local part of the GTH pseudopotential:      1


 SCF PARAMETERS         Density guess:                                    ATOMIC
                        --------------------------------------------------------
                        max_scf:                                             300
                        max_scf_history:                                       0
                        max_diis:                                              4
                        --------------------------------------------------------
                        eps_scf:                                        3.00E-07
                        eps_scf_history:                                0.00E+00
                        eps_diis:                                       1.00E-01
                        eps_eigval:                                     1.00E-05
                        --------------------------------------------------------
                        level_shift [a.u.]:                             0.000000
                        added MOs                                         4    0
                        --------------------------------------------------------
                        Mixing method:                            BROYDEN_MIXING
                                                charge density mixing in g-space
                        --------------------------------------------------------
                        Smear method:                                FERMI_DIRAC
                        Electronic temperature [K]:                        300.0
                        Electronic temperature [a.u.]:                  9.50E-04
                        Accuracy threshold:                             1.00E-10
                        --------------------------------------------------------
                        Outer loop SCF in use 
                        No variables optimised in outer loop
                        eps_scf                                         1.00E-06
                        max_scf                                              300
                        DIIS optimization
                        DIIS buffer length                                     3
                        step_size                                       5.00E-01

 Number of electrons:                                                          9
 Number of occupied orbitals:                                                  5
 Number of molecular orbitals:                                                 9

 Number of orbital functions:                                                  9
 Number of independent orbital functions:                                      9

 Extrapolation method: initial_guess


 SCF WAVEFUNCTION OPTIMIZATION

  Step     Update method      Time    Convergence         Total energy    Change
  ------------------------------------------------------------------------------
     1 NoMix/Diag. 0.10E+00    5.7     0.02074913       -47.1653348628 -4.72E+01
     2 Broy./Diag. 0.10E+00    6.9     0.00009781       -47.1219078729  4.34E-02
     3 Broy./Diag. 0.10E+00    7.5     0.00101028       -47.1632948054 -4.14E-02
     4 Broy./Diag. 0.10E+00    7.9     0.00002407       -47.1710528707 -7.76E-03
     5 Broy./Diag. 0.10E+00    7.3     0.00026049       -47.1710288030  2.41E-05
     6 Broy./Diag. 0.10E+00    8.7     0.00000867       -47.1711510517 -1.22E-04
     7 Broy./Diag. 0.10E+00    7.0     0.00014794       -47.1693828397  1.77E-03
     8 Broy./Diag. 0.10E+00    7.4     0.00001917       -47.1683921354  9.91E-04
     9 Broy./Diag. 0.10E+00    9.0     0.00019701       -47.1677640502  6.28E-04
    10 Broy./Diag. 0.10E+00    8.0     0.00000921       -47.1673911577  3.73E-04
    11 Broy./Diag. 0.10E+00    8.1     0.00009139       -47.1672178203  1.73E-04
    12 Broy./Diag. 0.10E+00    8.5     0.00000151       -47.1671816674  3.62E-05
    13 Broy./Diag. 0.10E+00    8.1     0.00000566       -47.1673035446 -1.22E-04
    14 Broy./Diag. 0.10E+00    7.6     0.00000081       -47.1673256540 -2.21E-05
    15 Broy./Diag. 0.10E+00    8.3     0.00001107       -47.1671511288  1.75E-04
    16 Broy./Diag. 0.10E+00    8.3     0.00000228       -47.1671305350  2.06E-05
    17 Broy./Diag. 0.10E+00    8.5     0.00000235       -47.1671818695 -5.13E-05
    18 Broy./Diag. 0.10E+00    8.0     0.00000208       -47.1672263796 -4.45E-05
    19 Broy./Diag. 0.10E+00    7.8     0.00000212       -47.1672445601 -1.82E-05
    20 Broy./Diag. 0.10E+00    7.1     0.00000189       -47.1672379506  6.61E-06
    21 Broy./Diag. 0.10E+00    8.9     0.00000224       -47.1672184348  1.95E-05
    22 Broy./Diag. 0.10E+00    8.6     0.00000261       -47.1671979375  2.05E-05
    23 Broy./Diag. 0.10E+00    9.3     0.00000360       -47.1671770851  2.09E-05
    24 Broy./Diag. 0.10E+00    7.7     0.00000074       -47.1671754035  1.68E-06
    25 Broy./Diag. 0.10E+00    7.6     0.00000031       -47.1671860888 -1.07E-05
    26 Broy./Diag. 0.10E+00    8.3     0.00000026       -47.1671797868  6.30E-06

  *** SCF run converged in    26 steps ***


  Electronic density on regular grids:         -9.0003982123       -0.0003982123
  Core density on regular grids:                9.0000000000       -0.0000000000
  Total charge density on r-space grids:       -0.0003982123
  Total charge density g-space grids:          -0.0003982123

  Overlap energy of the core charge distribution:               0.00000000000000
  Self energy of the core charge distribution:                -96.60649019442629
  Core Hamiltonian energy:                                     29.76237914667549
  Hartree energy:                                              26.72264128897361
  Exchange-correlation energy:                                 -7.04438438982900
  Dispersion energy:                                           -0.00000859667287
  Electronic entropic energy:                                  -0.00131704147593
  Fermi energy:                                                -0.09138334136953

  Total energy:                                               -47.16717978675499

  outer SCF iter =    1 RMS gradient =   0.26E-06 energy =        -47.1671797868
  outer SCF loop converged in   1 iterations or   26 steps


 *** WARNING in qs_loc_utils.F:1500 :: User requested the calculation of ***
 *** the localized wavefunction but the section LOCALIZE was not         ***
 *** specified. Localization will not be performed!                      ***


 -------------------------------------------------------------------------------
 -                                                                             -
 -  BSSE CALCULATION         FRAGMENT CONF: 11        FRAGMENT SUBCONF: 10     -
 -                           CHARGE =     0           MULTIPLICITY =     0     -
 -                                                                             -
 -                 ATOM INDEX                              ATOM NAME           -
 -                 ----------                              ---------           -
 -                      1                                   C                  -
 -                      2                                   C                  -
 -                      3                                   C                  -
 -                      4                                   C                  -
 -                      5                                   C                  -
 -                      6                                   C                  -
 -                      7                                   C                  -
 -                      8                                   C                  -
 -                      9                                   C                  -
 -                     10                                   C                  -
 -                     11                                   C                  -
 -                     12                                   C                  -
 -                     13                                   C                  -
 -                     14                                   C                  -
 -                     15                                   C                  -
 -                     16                                   C                  -
 -                     17                                   C                  -
 -                     18                                   C                  -
 -                     19                                   C                  -
 -                     20                                   C                  -
 -                     21                                   C                  -
 -                     22                                   C                  -
 -                     23                                   C                  -
 -                     24                                   C                  -
 -                     25                                   C                  -
 -                     26                                   C                  -
 -                     27                                   C                  -
 -                     28                                   C                  -
 -                     29                                   C                  -
 -                     30                                   C                  -
 -                     31                                   C                  -
 -                     32                                   C                  -
 -                     33                                   C                  -
 -                     34                                   C                  -
 -                     35                                   C                  -
 -                     36                                   C                  -
 -                     37                                   C                  -
 -                     38                                   C                  -
 -                     39                                   C                  -
 -                     40                                   C                  -
 -                     41                                   C                  -
 -                     42                                   C                  -
 -                     43                                   C                  -
 -                     44                                   C                  -
 -                     45                                   C                  -
 -                     46                                   C                  -
 -                     47                                   C                  -
 -                     48                                   C                  -
 -                     49                                   C                  -
 -                     50                                   C                  -
 -                     51                                   C                  -
 -                     52                                   C                  -
 -                     53                                   C                  -
 -                     54                                   C                  -
 -                     55                                   C                  -
 -                     56                                   C                  -
 -                     57                                   C                  -
 -                     58                                   C                  -
 -                     59                                   C                  -
 -                     60                                   C                  -
 -                     61                                   C                  -
 -                     62                                   C                  -
 -                     63                                   C                  -
 -                     64                                   C                  -
 -                     65                                   C                  -
 -                     66                                   C                  -
 -                     67                                   C                  -
 -                     68                                   C                  -
 -                     69                                   C                  -
 -                     70                                   C                  -
 -                     71                                   C                  -
 -                     72                                   C                  -
 -                     73                                   C                  -
 -                     74                                   C                  -
 -                     75                                   C                  -
 -                     76                                   C                  -
 -                     77                                   C                  -
 -                     78                                   C                  -
 -                     79                                   C                  -
 -                     80                                   C                  -
 -                     81                                   C                  -
 -                     82                                   C                  -
 -                     83                                   C                  -
 -                     84                                   C                  -
 -                     85                                   C                  -
 -                     86                                   C                  -
 -                     87                                   C                  -
 -                     88                                   C                  -
 -                     89                                   C                  -
 -                     90                                   C                  -
 -                     91                                   C                  -
 -                     92                                   C                  -
 -                     93                                   C                  -
 -                     94                                   C                  -
 -                     95                                   C                  -
 -                     96                                   C                  -
 -                     97                                   C                  -
 -                     98                                   C                  -
 -                     99                                   C                  -
 -                    100                                   C                  -
 -                    101                                   C                  -
 -                    102                                   C                  -
 -                    103                                   C                  -
 -                    104                                   C                  -
 -                    105                                   C                  -
 -                    106                                   C                  -
 -                    107                                   C                  -
 -                    108                                   C                  -
 -                    109                                   C                  -
 -                    110                                   C                  -
 -                    111                                   C                  -
 -                    112                                   C                  -
 -                    113                                   C                  -
 -                    114                                   C                  -
 -                    115                                   C                  -
 -                    116                                   C                  -
 -                    117                                   C                  -
 -                    118                                   C                  -
 -                    119                                   C                  -
 -                    120                                   C                  -
 -                    121                                   C                  -
 -                    122                                   C                  -
 -                    123                                   C                  -
 -                    124                                   C                  -
 -                    125                                   C                  -
 -                    126                                   C                  -
 -                    127                                   C                  -
 -                    128                                   C                  -
 -                    129                                   C                  -
 -                    130                                   C                  -
 -                    131                                   C                  -
 -                    132                                   C                  -
 -                    133                                   C                  -
 -                    134                                   C                  -
 -                    135                                   C                  -
 -                    136                                   C                  -
 -                    137                                   C                  -
 -                    138                                   C                  -
 -                    139                                   C                  -
 -                    140                                   C                  -
 -                    141                                   C                  -
 -                    142                                   C                  -
 -                    143                                   C                  -
 -                    144                                   C                  -
 -                    145                                   C                  -
 -                    146                                   C                  -
 -                    147                                   C                  -
 -                    148                                   C                  -
 -                    149                                   C                  -
 -                    150                                   C                  -
 -                    151                                   C                  -
 -                    152                                   C                  -
 -                    153                                   C                  -
 -                    154                                   C                  -
 -                    155                                   C                  -
 -                    156                                   C                  -
 -                    157                                   C                  -
 -                    158                                   C                  -
 -                    159                                   C                  -
 -                    160                                   C                  -
 -                    161                                   C                  -
 -                    162                                   C                  -
 -                    163                                   C                  -
 -                    164                                   C                  -
 -                    165                                   C                  -
 -                    166                                   C                  -
 -                    167                                   C                  -
 -                    168                                   C                  -
 -                    169                                   C                  -
 -                    170                                   C                  -
 -                    171                                   C                  -
 -                    172                                   C                  -
 -                    173                                   C                  -
 -                    174                                   C                  -
 -                    175                                   C                  -
 -                    176                                   C                  -
 -                    177                                   C                  -
 -                    178                                   C                  -
 -                    179                                   C                  -
 -                    180                                   C                  -
 -                    181                                   C                  -
 -                    182                                   C                  -
 -                    183                                   C                  -
 -                    184                                   C                  -
 -                    185                                   C                  -
 -                    186                                   C                  -
 -                    187                                   C                  -
 -                    188                                   C                  -
 -                    189                                   C                  -
 -                    190                                   C                  -
 -                    191                                   C                  -
 -                    192                                   C                  -
 -                    193                                   Na_ghost           -
 -------------------------------------------------------------------------------

 *******************************************************************************
 *******************************************************************************
 **                                                                           **
 **     #####                         ##              ##                      **
 **    ##   ##            ##          ##              ##                      **
 **   ##     ##                       ##            ######                    **
 **   ##     ##  ##   ##  ##   #####  ##  ##   ####   ##    #####    #####    **
 **   ##     ##  ##   ##  ##  ##      ## ##   ##      ##   ##   ##  ##   ##   **
 **   ##  ## ##  ##   ##  ##  ##      ####     ###    ##   ######   ######    **
 **    ##  ###   ##   ##  ##  ##      ## ##      ##   ##   ##       ##        **
 **     #######   #####   ##   #####  ##  ##  ####    ##    #####   ##        **
 **           ##                                                    ##        **
 **                                                                           **
 **                                                ... make the atoms dance   **
 **                                                                           **
 **            Copyright (C) by CP2K developers group (2000-2022)             **
 **                      J. Chem. Phys. 152, 194103 (2020)                    **
 **                                                                           **
 *******************************************************************************


 TOTAL NUMBERS AND MAXIMUM NUMBERS

  Total number of            - Atomic kinds:                                   2
                             - Atoms:                                        193
                             - Shell sets:                                   193
                             - Shells:                                       965
                             - Primitive Cartesian functions:                967
                             - Cartesian basis functions:                   2697
                             - Spherical basis functions:                   2505

  Maximum angular momentum of- Orbital basis functions:                        2
                             - Local part of the GTH pseudopotential:          2
                             - Non-local part of the GTH pseudopotential:      0


 SCF PARAMETERS         Density guess:                                    ATOMIC
                        --------------------------------------------------------
                        max_scf:                                             300
                        max_scf_history:                                       0
                        max_diis:                                              4
                        --------------------------------------------------------
                        eps_scf:                                        3.00E-07
                        eps_scf_history:                                0.00E+00
                        eps_diis:                                       1.00E-01
                        eps_eigval:                                     1.00E-05
                        --------------------------------------------------------
                        level_shift [a.u.]:                             0.000000
                        added MOs                                       100    0
                        --------------------------------------------------------
                        Mixing method:                            BROYDEN_MIXING
                                                charge density mixing in g-space
                        --------------------------------------------------------
                        Smear method:                                FERMI_DIRAC
                        Electronic temperature [K]:                        300.0
                        Electronic temperature [a.u.]:                  9.50E-04
                        Accuracy threshold:                             1.00E-10
                        --------------------------------------------------------
                        Outer loop SCF in use 
                        No variables optimised in outer loop
                        eps_scf                                         1.00E-06
                        max_scf                                              300
                        DIIS optimization
                        DIIS buffer length                                     3
                        step_size                                       5.00E-01

 Number of electrons:                                                        768
 Number of occupied orbitals:                                                384
 Number of molecular orbitals:                                               484

 Number of orbital functions:                                               2505
 Number of independent orbital functions:                                   2505

 Extrapolation method: initial_guess


 SCF WAVEFUNCTION OPTIMIZATION

  Step     Update method      Time    Convergence         Total energy    Change
  ------------------------------------------------------------------------------
     1 NoMix/Diag. 0.10E+00  145.0     0.92597868     -1085.8788232840 -1.09E+03
     2 Broy./Diag. 0.10E+00  170.1     0.00229621     -1044.4403176581  4.14E+01
     3 Broy./Diag. 0.10E+00  133.6     0.02554540     -1076.5093855905 -3.21E+01
     4 Broy./Diag. 0.10E+00  153.6     0.00033545     -1090.1726172130 -1.37E+01
     5 Broy./Diag. 0.10E+00  156.6     0.00223439     -1090.7562215820 -5.84E-01
     6 Broy./Diag. 0.10E+00  115.5     0.00009767     -1091.9310515843 -1.17E+00
     7 Broy./Diag. 0.10E+00  144.0     0.00074929     -1092.4526621899 -5.22E-01
     8 Broy./Diag. 0.10E+00  166.3     0.00004450     -1092.8179866691 -3.65E-01
     9 Broy./Diag. 0.10E+00  151.3     0.00051307     -1092.9922505671 -1.74E-01
    10 Broy./Diag. 0.10E+00  162.9     0.00004518     -1093.2133437304 -2.21E-01
    11 Broy./Diag. 0.10E+00  176.2     0.00041266     -1093.1683945731  4.49E-02
    12 Broy./Diag. 0.10E+00  158.5     0.00002755     -1093.2484837918 -8.01E-02
    13 Broy./Diag. 0.10E+00  161.1     0.00029137     -1093.2937097654 -4.52E-02
    14 Broy./Diag. 0.10E+00  168.5     0.00004031     -1093.3377316353 -4.40E-02
    15 Broy./Diag. 0.10E+00  158.9     0.00023120     -1093.3655645766 -2.78E-02
    16 Broy./Diag. 0.10E+00  154.2     0.00005740     -1093.3802567449 -1.47E-02
    17 Broy./Diag. 0.10E+00  135.0     0.00006198     -1093.3617351207  1.85E-02
    18 Broy./Diag. 0.10E+00  163.4     0.00001741     -1093.3508848690  1.09E-02
    19 Broy./Diag. 0.10E+00  153.9     0.00003755     -1093.3488334074  2.05E-03
    20 Broy./Diag. 0.10E+00  157.9     0.00000495     -1093.3535092417 -4.68E-03
    21 Broy./Diag. 0.10E+00  157.6     0.00002000     -1093.3566432547 -3.13E-03
    22 Broy./Diag. 0.10E+00  112.0     0.00000685     -1093.3580074264 -1.36E-03
    23 Broy./Diag. 0.10E+00  128.7     0.00001111     -1093.3614829882 -3.48E-03
    24 Broy./Diag. 0.10E+00  136.0     0.00001134     -1093.3624799379 -9.97E-04
    25 Broy./Diag. 0.10E+00  156.1     0.00002053     -1093.3626902473 -2.10E-04
    26 Broy./Diag. 0.10E+00  157.6     0.00000412     -1093.3657914524 -3.10E-03
    27 Broy./Diag. 0.10E+00  155.8     0.00002159     -1093.3685633611 -2.77E-03
    28 Broy./Diag. 0.10E+00  142.8     0.00000199     -1093.3719452904 -3.38E-03
    29 Broy./Diag. 0.10E+00  160.7     0.00000955     -1093.3721898142 -2.45E-04
    30 Broy./Diag. 0.10E+00  150.5     0.00000140     -1093.3726207135 -4.31E-04
    31 Broy./Diag. 0.10E+00  143.3     0.00000476     -1093.3730879356 -4.67E-04
    32 Broy./Diag. 0.10E+00  150.2     0.00000060     -1093.3733688257 -2.81E-04
    33 Broy./Diag. 0.10E+00  157.4     0.00000284     -1093.3733703754 -1.55E-06
    34 Broy./Diag. 0.10E+00  154.6     0.00000046     -1093.3732105924  1.60E-04
    35 Broy./Diag. 0.10E+00  148.0     0.00000177     -1093.3729588655  2.52E-04
    36 Broy./Diag. 0.10E+00  145.0     0.00000026     -1093.3727821734  1.77E-04

  *** SCF run converged in    36 steps ***


  Electronic density on regular grids:       -767.9999999981        0.0000000019
  Core density on regular grids:              767.9999999993       -0.0000000007
  Total charge density on r-space grids:        0.0000000012
  Total charge density g-space grids:           0.0000000012

  Overlap energy of the core charge distribution:               0.00002990120435
  Self energy of the core charge distribution:              -2560.32152193892080
  Core Hamiltonian energy:                                    800.95095939591636
  Hartree energy:                                            1001.41427178564152
  Exchange-correlation energy:                               -335.17006862124094
  Dispersion energy:                                           -0.24645252085367
  Electronic entropic energy:                                  -0.00000017516440
  Fermi energy:                                                -0.10923651144572

  Total energy:                                             -1093.37278217341714

  outer SCF iter =    1 RMS gradient =   0.26E-06 energy =      -1093.3727821734
  outer SCF loop converged in   1 iterations or   36 steps


 *** WARNING in qs_loc_utils.F:1500 :: User requested the calculation of ***
 *** the localized wavefunction but the section LOCALIZE was not         ***
 *** specified. Localization will not be performed!                      ***


 -------------------------------------------------------------------------------
 -                                                                             -
 -  BSSE CALCULATION         FRAGMENT CONF: 11        FRAGMENT SUBCONF: 01     -
 -                           CHARGE =     0           MULTIPLICITY =     0     -
 -                                                                             -
 -                 ATOM INDEX                              ATOM NAME           -
 -                 ----------                              ---------           -
 -                      1                                   C_ghost            -
 -                      2                                   C_ghost            -
 -                      3                                   C_ghost            -
 -                      4                                   C_ghost            -
 -                      5                                   C_ghost            -
 -                      6                                   C_ghost            -
 -                      7                                   C_ghost            -
 -                      8                                   C_ghost            -
 -                      9                                   C_ghost            -
 -                     10                                   C_ghost            -
 -                     11                                   C_ghost            -
 -                     12                                   C_ghost            -
 -                     13                                   C_ghost            -
 -                     14                                   C_ghost            -
 -                     15                                   C_ghost            -
 -                     16                                   C_ghost            -
 -                     17                                   C_ghost            -
 -                     18                                   C_ghost            -
 -                     19                                   C_ghost            -
 -                     20                                   C_ghost            -
 -                     21                                   C_ghost            -
 -                     22                                   C_ghost            -
 -                     23                                   C_ghost            -
 -                     24                                   C_ghost            -
 -                     25                                   C_ghost            -
 -                     26                                   C_ghost            -
 -                     27                                   C_ghost            -
 -                     28                                   C_ghost            -
 -                     29                                   C_ghost            -
 -                     30                                   C_ghost            -
 -                     31                                   C_ghost            -
 -                     32                                   C_ghost            -
 -                     33                                   C_ghost            -
 -                     34                                   C_ghost            -
 -                     35                                   C_ghost            -
 -                     36                                   C_ghost            -
 -                     37                                   C_ghost            -
 -                     38                                   C_ghost            -
 -                     39                                   C_ghost            -
 -                     40                                   C_ghost            -
 -                     41                                   C_ghost            -
 -                     42                                   C_ghost            -
 -                     43                                   C_ghost            -
 -                     44                                   C_ghost            -
 -                     45                                   C_ghost            -
 -                     46                                   C_ghost            -
 -                     47                                   C_ghost            -
 -                     48                                   C_ghost            -
 -                     49                                   C_ghost            -
 -                     50                                   C_ghost            -
 -                     51                                   C_ghost            -
 -                     52                                   C_ghost            -
 -                     53                                   C_ghost            -
 -                     54                                   C_ghost            -
 -                     55                                   C_ghost            -
 -                     56                                   C_ghost            -
 -                     57                                   C_ghost            -
 -                     58                                   C_ghost            -
 -                     59                                   C_ghost            -
 -                     60                                   C_ghost            -
 -                     61                                   C_ghost            -
 -                     62                                   C_ghost            -
 -                     63                                   C_ghost            -
 -                     64                                   C_ghost            -
 -                     65                                   C_ghost            -
 -                     66                                   C_ghost            -
 -                     67                                   C_ghost            -
 -                     68                                   C_ghost            -
 -                     69                                   C_ghost            -
 -                     70                                   C_ghost            -
 -                     71                                   C_ghost            -
 -                     72                                   C_ghost            -
 -                     73                                   C_ghost            -
 -                     74                                   C_ghost            -
 -                     75                                   C_ghost            -
 -                     76                                   C_ghost            -
 -                     77                                   C_ghost            -
 -                     78                                   C_ghost            -
 -                     79                                   C_ghost            -
 -                     80                                   C_ghost            -
 -                     81                                   C_ghost            -
 -                     82                                   C_ghost            -
 -                     83                                   C_ghost            -
 -                     84                                   C_ghost            -
 -                     85                                   C_ghost            -
 -                     86                                   C_ghost            -
 -                     87                                   C_ghost            -
 -                     88                                   C_ghost            -
 -                     89                                   C_ghost            -
 -                     90                                   C_ghost            -
 -                     91                                   C_ghost            -
[...]
    29 Broy./Diag. 0.10E+00  145.9     0.00003338     -1140.5885875998 -1.48E-03
    30 Broy./Diag. 0.10E+00  159.6     0.00000729     -1140.5878498565  7.38E-04
    31 Broy./Diag. 0.10E+00  148.7     0.00000801     -1140.5857268614  2.12E-03
    32 Broy./Diag. 0.10E+00  167.7     0.00001473     -1140.5836692130  2.06E-03
    33 Broy./Diag. 0.10E+00  140.5     0.00001371     -1140.5825126443  1.16E-03
    34 Broy./Diag. 0.10E+00  145.4     0.00005313     -1140.5825452421 -3.26E-05
    35 Broy./Diag. 0.10E+00  138.5     0.00001838     -1140.5827691001 -2.24E-04
    36 Broy./Diag. 0.10E+00  153.6     0.00002038     -1140.5826907434  7.84E-05
    37 Broy./Diag. 0.10E+00  151.2     0.00000464     -1140.5822102287  4.81E-04
    38 Broy./Diag. 0.10E+00  146.8     0.00000632     -1140.5818341968  3.76E-04
    39 Broy./Diag. 0.10E+00  152.7     0.00001728     -1140.5822491169 -4.15E-04
    40 Broy./Diag. 0.10E+00  160.3     0.00000427     -1140.5829075160 -6.58E-04
    41 Broy./Diag. 0.10E+00  165.3     0.00000651     -1140.5834909039 -5.83E-04
    42 Broy./Diag. 0.10E+00  153.5     0.00000177     -1140.5838112702 -3.20E-04
    43 Broy./Diag. 0.10E+00  160.7     0.00000264     -1140.5839880055 -1.77E-04
    44 Broy./Diag. 0.10E+00  161.7     0.00000253     -1140.5839770007  1.10E-05
    45 Broy./Diag. 0.10E+00  174.9     0.00000102     -1140.5838742869  1.03E-04
    46 Broy./Diag. 0.10E+00  131.2     0.00000288     -1140.5836968693  1.77E-04
    47 Broy./Diag. 0.10E+00  150.3     0.00000211     -1140.5837007847 -3.92E-06
    48 Broy./Diag. 0.10E+00  124.0     0.00000346     -1140.5837584690 -5.77E-05
    49 Broy./Diag. 0.10E+00  139.6     0.00000073     -1140.5837084541  5.00E-05
    50 Broy./Diag. 0.10E+00  164.0     0.00000107     -1140.5836129634  9.55E-05
    51 Broy./Diag. 0.10E+00  144.3     0.00000300     -1140.5835633840  4.96E-05
    52 Broy./Diag. 0.10E+00  155.8     0.00000164     -1140.5835878524 -2.45E-05
    53 Broy./Diag. 0.10E+00  170.0     0.00000302     -1140.5835958954 -8.04E-06
    54 Broy./Diag. 0.10E+00  166.1     0.00000128     -1140.5836299182 -3.40E-05
    55 Broy./Diag. 0.10E+00  155.2     0.00000123     -1140.5836738376 -4.39E-05
    56 Broy./Diag. 0.10E+00  160.5     0.00000085     -1140.5837048392 -3.10E-05
    57 Broy./Diag. 0.10E+00  168.1     0.00000020     -1140.5837031270  1.71E-06

  *** SCF run converged in    57 steps ***


  Electronic density on regular grids:       -777.0004003398       -0.0004003398
  Core density on regular grids:              776.9999999993       -0.0000000007
  Total charge density on r-space grids:       -0.0004003404
  Total charge density g-space grids:          -0.0004003404

  Overlap energy of the core charge distribution:               0.00002990120435
  Self energy of the core charge distribution:              -2656.92801213334678
  Core Hamiltonian energy:                                    831.13823126024749
  Hartree energy:                                            1027.93081802422512
  Exchange-correlation energy:                               -342.47268445024019
  Dispersion energy:                                           -0.24994641154431
  Electronic entropic energy:                                  -0.00213931771060
  Fermi energy:                                                -0.09115171449016

  Total energy:                                             -1140.58370312704915

  outer SCF iter =    1 RMS gradient =   0.20E-06 energy =      -1140.5837031270
  outer SCF loop converged in   1 iterations or   57 steps


 *** WARNING in qs_loc_utils.F:1500 :: User requested the calculation of ***
 *** the localized wavefunction but the section LOCALIZE was not         ***
 *** specified. Localization will not be performed!                      ***


 -------------------------------------------------------------------------------
 -                                                                             -
 -                                 BSSE RESULTS                                -
 -                                                                             -
 -                 CP-corrected Total energy:    -1140.582013                  -
 -                                                                             -
 -                       1-body contribution:    -1093.371681                  -
 -                       1-body contribution:      -47.167180                  -
 -                                                                             -
 -                       2-body contribution:       -0.043152                  -
 -                 BSSE-free interaction energy:       -0.043152               -
 -------------------------------------------------------------------------------

 -------------------------------------------------------------------------------
 -                                                                             -
 -                                DBCSR STATISTICS                             -
 -                                                                             -
 -------------------------------------------------------------------------------
 COUNTER                                    TOTAL       BLAS       SMM       ACC
 flops     9 x     9 x     9                80190     100.0%      0.0%      0.0%
 flops     9 x     9 x    32               451008     100.0%      0.0%      0.0%
 flops     9 x     9 x   100               583200     100.0%      0.0%      0.0%
 flops     9 x     9 x   105               969570     100.0%      0.0%      0.0%
 flops    13 x     9 x     9              5435586     100.0%      0.0%      0.0%
 flops     9 x    13 x     9              5679882     100.0%      0.0%      0.0%
 flops     9 x     9 x   128              5785344     100.0%      0.0%      0.0%
 flops    13 x     9 x    32             57979584     100.0%      0.0%      0.0%
 flops     9 x    13 x    32             60585408     100.0%      0.0%      0.0%
 flops    13 x     9 x   100             74973600     100.0%      0.0%      0.0%
 flops     9 x    13 x   100             78343200     100.0%      0.0%      0.0%
 flops    13 x     9 x   105            124643610     100.0%      0.0%      0.0%
 flops     9 x    13 x   105            130245570     100.0%      0.0%      0.0%
 flops    13 x     9 x   128            743738112     100.0%      0.0%      0.0%
 flops     9 x    13 x   128            777164544     100.0%      0.0%      0.0%
 flops    13 x    13 x     9           1013801256     100.0%      0.0%      0.0%
 flops    13 x    13 x    32          10813880064     100.0%      0.0%      0.0%
 flops    13 x    13 x   105          23247511560     100.0%      0.0%      0.0%
 flops    13 x    13 x   100          28743790400     100.0%      0.0%      0.0%
 flops    13 x    13 x   128         195395625984     100.0%      0.0%      0.0%
 flops inhomo. stacks                           0       0.0%      0.0%      0.0%
 flops total                       261.281268E+09     100.0%      0.0%      0.0%
 flops max/rank                     17.174618E+09     100.0%      0.0%      0.0%
 matmuls inhomo. stacks                         0       0.0%      0.0%      0.0%
 matmuls total                            7444210     100.0%      0.0%      0.0%
 number of processed stacks                 14170     100.0%      0.0%      0.0%
 average stack size                                   525.4       0.0       0.0
 marketing flops                   641.536295E+09
 -------------------------------------------------------------------------------
 # multiplications                            186
 max memory usage/rank             882.278400E+06
 # max total images/rank                        1
 # max 3D layers                                1
 # MPI messages exchanged                   17856
 MPI messages size (bytes):
  total size                         8.016248E+09
  min size                           0.000000E+00
  max size                         648.192000E+03
  average size                     448.938594E+03
 MPI breakdown and total messages size (bytes):
             size <=      128                2340                        0
       128 < size <=     8192                 156                   101088
      8192 < size <=    32768                   0                        0
     32768 < size <=   131072                 696                 31382640
    131072 < size <=  4194304               14664               7984768176
   4194304 < size <= 16777216                   0                        0
  16777216 < size                               0                        0
 -------------------------------------------------------------------------------
 -                                                                             -
 -                      DBCSR MESSAGE PASSING PERFORMANCE                      -
 -                                                                             -
 -------------------------------------------------------------------------------
 ROUTINE             CALLS      AVE VOLUME [Bytes]
 MP_Bcast               21                     12.
 MP_Allreduce         1366                      9.
 MP_Alltoall          5268                 476468.
 MP_ISend             2976                 180936.
 MP_IRecv             2976                 167193.
 -------------------------------------------------------------------------------

 -------------------------------------------------------------------------------
 -                                                                             -
 -                                DBM STATISTICS                               -
 -                                                                             -
 -------------------------------------------------------------------------------
    M  x    N  x    K                                          COUNT     PERCENT
 -------------------------------------------------------------------------------

 -------------------------------------------------------------------------------
 -                                                                             -
 -                                GRID STATISTICS                              -
 -                                                                             -
 -------------------------------------------------------------------------------
 LP    KERNEL             BACKEND                              COUNT     PERCENT
 4     collocate ortho    REF                               18905756      50.06%
 4     integrate ortho    REF                               18444640      48.84%
 3     collocate ortho    REF                                 196500       0.52%
 3     integrate ortho    REF                                 191784       0.51%
 0     collocate general  REF                                   9264       0.02%
 2     collocate ortho    REF                                   7752       0.02%
 2     integrate ortho    REF                                   7548       0.02%
 -------------------------------------------------------------------------------

 MEMORY| Estimated peak process memory [MiB]                                 842

 -------------------------------------------------------------------------------
 -                                                                             -
 -                         MESSAGE PASSING PERFORMANCE                         -
 -                                                                             -
 -------------------------------------------------------------------------------

 ROUTINE             CALLS      AVE VOLUME [Bytes]
 MP_Group               24
 MP_Bcast              525                1840250.
 MP_Allreduce         2723                   1773.
 MP_Sync               236
 MP_Alltoall          2518               23347323.
 MP_SendRecv          7962                 213239.
 MP_ISendRecv         5580                 161680.
 MP_Wait             13929
 MP_comm_split          26
 MP_ISend             6072                1392410.
 MP_IRecv             6072                1392385.
 MP_Recv               115                 613153.
 -------------------------------------------------------------------------------


 -------------------------------------------------------------------------------
 -                                                                             -
 -                           R E F E R E N C E S                               -
 -                                                                             -
 -------------------------------------------------------------------------------
 
 CP2K version 2023.1, the CP2K developers group (2023).
 CP2K is freely available from https://www.cp2k.org/ .

 Kuehne,Thomas D.; Iannuzzi,Marcella; Del Ben,Mauro;
 Rybkin,Vladimir V.; Seewald,Patrick; Stein,Frederick; Laino,Teodoro;
 Khaliullin,Rustam Z.; Schuett,Ole; Schiffmann,Florian; Golze,Dorothea;
 Wilhelm,Jan; Chulkov,Sergey; Bani-Hashemian,Mohammad Hossein;
 Weber,Valery; Borstnik,Urban; Taillefumier,Mathieu;
 Jakobovits,Alice Shoshana; Lazzaro,Alfio; Pabst,Hans; Mueller,Tiziano;
 Schade,Robert; Guidon,Manuel; Andermatt,Samuel; Holmberg,Nico;
 Schenter,Gregory K.; Hehn,Anna; Bussy,Augustin; Belleflamme,Fabian;
 Tabacchi,Gloria; Gloess,Andreas; Lass,Michael; Bethune,Iain;
 Mundy,Christopher J.; Plessl,Christian; Watkins,Matt;
 VandeVondele,Joost; Krack,Matthias; Hutter,Juerg. 
 The Journal of Chemical Physics, 152 (19), (2020). 
 CP2K: An electronic structure and molecular dynamics software package -
 Quickstep: Efficient and accurate electronic structure calculations.
 https://doi.org/10.1063/5.0007045

 Goerigk, Lars; Hansen, Andreas; Bauer, Christoph; Ehrlich, Stephan;
 Najibi, Asim; Grimme, Stefan. , 19 (48), (2017). 
 A look at the density functional theory zoo with the advanced GMTKN55 database
 for general main group thermochemistry, kinetics and noncovalent interactions.
 https://doi.org/10.1039/C7CP04913G

 Schuett, Ole; Messmer, Peter; Hutter, Juerg; VandeVondele, Joost. 
 Electronic Structure Calculations on Graphics Processing Units, John
 Wiley & Sons, Ltd, 173-190 (2016). 
 GPU-Accelerated Sparse Matrix-Matrix Multiplication for
 Linear Scaling Density Functional Theory.
 https://doi.org/10.1002/9781118670712.ch8

 Borstnik, U; VandeVondele, J; Weber, V; Hutter, J. 
 PARALLEL COMPUTING, 40 (5-6), 47-58 (2014). 
 Sparse matrix multiplication: The distributed block-compressed sparse
 row library.
 https://doi.org/10.1016/j.parco.2014.03.012

 Hutter, J; Iannuzzi, M; Schiffmann, F; VandeVondele, J. 
 WIREs Comput Mol Sci., 4 (1), 15-25 (2014). 
 CP2K: atomistic simulations of condensed matter systems.
 https://doi.org/10.1002/wcms.1159

 Marek, A; Blum, V; Johanni, R; Havu, V; Lang, B; Auckenthaler, T;
 Heinecke, A; Bungartz, H; Lederer, H. 
 Journal of Physics: Condensed Matter, 26 (21), (2014). 
 The ELPA library: scalable parallel eigenvalue solutions for
 electronic structure
 theory and computational science.
 https://doi.org/10.1088/0953-8984/26/21/213201

 Grimme, S; Ehrlich, S; Goerigk, L. 
 JOURNAL OF COMPUTATIONAL CHEMISTRY, 32, 1456 (2011). 
 Effect of the damping function in dispersion corrected density functional theory.
 https://doi.org/10.1002/jcc.21759

 Grimme, S; Antony, J; Ehrlich, S; Krieg, H. 
 JOURNAL OF CHEMICAL PHYSICS, 132 (15), 154104 (2010). 
 A consistent and accurate ab initio parametrization of density
 functional dispersion correction (DFT-D) for the 94 elements H-Pu.
 https://doi.org/10.1063/1.3382344

 VandeVondele, J; Hutter, J. 
 JOURNAL OF CHEMICAL PHYSICS, 127 (11), 114105 (2007). 
 Gaussian basis sets for accurate calculations on molecular systems in
 gas and condensed phases.
 https://doi.org/10.1063/1.2770708

 Krack, M. 
 THEORETICAL CHEMISTRY ACCOUNTS, 114 (1-3), 145-152 (2005). 
 Pseudopotentials for H to Kr optimized for gradient-corrected
 exchange-correlation functionals.
 https://doi.org/10.1007/s00214-005-0655-y

 VandeVondele, J; Krack, M; Mohamed, F; Parrinello, M; Chassaing, T;
 Hutter, J. COMPUTER PHYSICS COMMUNICATIONS, 167 (2), 103-128 (2005). 
 QUICKSTEP: Fast and accurate density functional calculations using a
 mixed Gaussian and plane waves approach.
 https://doi.org/10.1016/j.cpc.2004.12.014

 Frigo, M; Johnson, SG. 
 PROCEEDINGS OF THE IEEE, 93 (2), 216-231 (2005). 
 The design and implementation of FFTW3.
 https://doi.org/10.1109/JPROC.2004.840301

 Hartwigsen, C; Goedecker, S; Hutter, J. 
 PHYSICAL REVIEW B, 58 (7), 3641-3662 (1998). 
 Relativistic separable dual-space Gaussian pseudopotentials from H to Rn.
 https://doi.org/10.1103/PhysRevB.58.3641

 Lippert, G; Hutter, J; Parrinello, M. 
 MOLECULAR PHYSICS, 92 (3), 477-487 (1997). 
 A hybrid Gaussian and plane wave density functional scheme.
 https://doi.org/10.1080/002689797170220

 Perdew, JP; Burke, K; Ernzerhof, M. 
 PHYSICAL REVIEW LETTERS, 77 (18), 3865-3868 (1996). 
 Generalized gradient approximation made simple.
 https://doi.org/10.1103/PhysRevLett.77.3865

 Goedecker, S; Teter, M; Hutter, J. 
 PHYSICAL REVIEW B, 54 (3), 1703-1710 (1996). 
 Separable dual-space Gaussian pseudopotentials.
 https://doi.org/10.1103/PhysRevB.54.1703


 -------------------------------------------------------------------------------
 -                                                                             -
 -                                T I M I N G                                  -
 -                                                                             -
 -------------------------------------------------------------------------------
 SUBROUTINE                       CALLS  ASD         SELF TIME        TOTAL TIME
                                MAXIMUM       AVERAGE  MAXIMUM  AVERAGE  MAXIMUM
 CP2K                                 1  1.0     2.36     2.42 23450.29 23450.29
 qs_energies                          5  2.0     0.00     0.00 23406.07 23406.44
 scf_env_do_scf                       5  3.0     0.00     0.00 23346.25 23346.62
 scf_env_do_scf_inner_loop          186  4.0     0.01     0.02 23346.25 23346.62
 qs_scf_new_mos                     186  5.0     0.01     0.04 21940.92 21941.94
 eigensolver                        186  6.0     0.02     0.02 21650.70 21652.90
 cp_fm_diag_elpa                    160  7.0     0.00     0.00 20159.64 20163.75
 cp_fm_diag_elpa_base               160  8.0 20147.88 20151.02 20152.00 20152.65
 cp_fm_triangular_multiply          558  7.0  1431.78  1438.18  1431.78  1438.18
 qs_ks_update_qs_env                186  5.0     0.00     0.02   692.30   693.79
 rebuild_ks_matrix                  186  6.0     0.00     0.00   681.81   683.47
 qs_ks_build_kohn_sham_matrix       186  7.0     0.05     0.10   681.81   683.47
 qs_rho_update_rho_low              191  5.0     0.00     0.00   575.63   576.99
 calculate_rho_elec                 191  6.0     1.32     1.42   575.63   576.99
 rs_pw_transfer                    1513  9.5     0.04     0.06   451.95   558.92
 sum_up_and_integrate               186  8.0     1.38     1.51   498.71   500.52
 integrate_v_rspace                 186  9.0     0.01     0.02   497.33   499.25
 density_rs2pw                      191  7.0     0.02     0.04   387.64   494.10
 -------------------------------------------------------------------------------

 The number of warnings for this run is : 6
 
 -------------------------------------------------------------------------------
  **** **** ******  **  PROGRAM ENDED AT                 2025-06-15 04:48:06.915
 ***** ** ***  *** **   PROGRAM RAN ON                                sebnode133
 **    ****   ******    PROGRAM RAN BY                                    luehrs
 ***** **    ** ** **   PROGRAM PROCESS ID                               1807052
  **** **  *******  **  PROGRAM STOPPED IN /home/luehrs/PhD/Sodium_batteries/Sod
                                           ium-graphene-curvature/Sinus_surface/
                                           Sinus_5
