 DBCSR| CPU Multiplication driver                                           BLAS (U)
 DBCSR| Multrec recursion limit                                              512 (U)
 DBCSR| Multiplication stack size                                           1000 (D)
 DBCSR| Maximum elements for images                                    UNLIMITED (U)
 DBCSR| Multiplicative factor virtual images                                   1 (U)
 DBCSR| Use multiplication densification                                       T (D)
 DBCSR| Multiplication size stacks                                             3 (U)
 DBCSR| Use memory pool for CPU allocation                                     F (U)
 DBCSR| Number of 3D layers                                               SINGLE (U)
 DBCSR| Use MPI memory allocation                                              F (U)
 DBCSR| Use RMA algorithm                                                      F (U)
 DBCSR| Use Communication thread                                               T (U)
 DBCSR| Communication thread load                                             87 (D)
 DBCSR| MPI: My process id                                                     0
 DBCSR| MPI: Number of processes                                              16
 DBCSR| OMP: Current number of threads                                         1
 DBCSR| OMP: Max number of threads                                             1
 DBCSR| Split modifier for TAS multiplication algorithm                  1.0E+00 (U)


  **** **** ******  **  PROGRAM STARTED AT               2025-10-07 17:16:48.468
 ***** ** ***  *** **   PROGRAM STARTED ON                            sebnode122
 **    ****   ******    PROGRAM STARTED BY                                luehrs
 ***** **    ** ** **   PROGRAM PROCESS ID                                979523
  **** **  *******  **  PROGRAM STARTED IN /home/luehrs/PhD/Sodium_batteries/Sod
                                           ium-graphene-functional_groups/XPS_Fu
                                           nctional_groups/C_atom_XPS/Alcohol_zi
                                           g-zag_hydrogenated

 CP2K| version string:                                       CP2K version 2023.1
 CP2K| source code revision number:                                  git:b888bd8
 CP2K| cp2kflags: omp libint fftw3 libxc elpa parallel scalapack spglib         
 CP2K| is freely available from                            https://www.cp2k.org/
 CP2K| Program compiled at                          Tue Jan 10 19:52:03 UTC 2023
 CP2K| Program compiled on                                            x86-ubc-01
 CP2K| Program compiled for                                Linux-x86_64-gfortran
 CP2K| Data directory path                                       /usr/share/cp2k
 CP2K| Input file name                                                 input.inp

 GLOBAL| Force Environment number                                              1
 GLOBAL| Basis set file name                                          BASIS_GW2X
 GLOBAL| Potential file name                                           POTENTIAL
 GLOBAL| MM Potential file name                                     MM_POTENTIAL
 GLOBAL| Coordinate file name                                        coords2.xyz
 GLOBAL| Method name                                                        CP2K
 GLOBAL| Project name                                                         HC
 GLOBAL| Run type                                                         ENERGY
 GLOBAL| FFT library                                                       FFTW3
 GLOBAL| Diagonalization library                                            ELPA
 GLOBAL| DGEMM library                                                      BLAS
 GLOBAL| Minimum number of eigenvectors for ELPA usage                        16
 GLOBAL| Orthonormality check for eigenvectors                          DISABLED
 GLOBAL| Matrix multiplication library                                 ScaLAPACK
 GLOBAL| All-to-all communication in single precision                          F
 GLOBAL| FFTs using library dependent lengths                                  F
 GLOBAL| Grid backend                                                       AUTO
 GLOBAL| Global print level                                                 HIGH
 GLOBAL| MPI I/O enabled                                                       T
 GLOBAL| Total number of message passing processes                            16
 GLOBAL| Number of threads for this process                                    1
 GLOBAL| This output is from process                                           0
 GLOBAL| Stack size for threads created by OpenMP (OMP_STACKSIZE)        default
 GLOBAL| CPU model name                 Intel(R) Xeon(R) Gold 6144 CPU @ 3.50GHz

 MEMORY| system memory details [Kb]
 MEMORY|                        rank 0           min           max       average
 MEMORY| MemTotal             65585092      65585092      65585092      65585092
 MEMORY| MemFree              61766052      61766052      61766052      61766052
 MEMORY| Buffers                230088        230088        230088        230088
 MEMORY| Cached                1565616       1565616       1565616       1565616
 MEMORY| Slab                   277884        277884        277884        277884
 MEMORY| SReclaimable           134284        134284        134284        134284
 MEMORY| MemLikelyFree        63696040      63696040      63696040      63696040


 *** Fundamental physical constants (SI units) ***

 *** Literature: B. J. Mohr and B. N. Taylor,
 ***             CODATA recommended values of the fundamental physical
 ***             constants: 2006, Web Version 5.1
 ***             http://physics.nist.gov/constants

 Speed of light in vacuum [m/s]                             2.99792458000000E+08
 Magnetic constant or permeability of vacuum [N/A**2]       1.25663706143592E-06
 Electric constant or permittivity of vacuum [F/m]          8.85418781762039E-12
 Planck constant (h) [J*s]                                  6.62606896000000E-34
 Planck constant (h-bar) [J*s]                              1.05457162825177E-34
 Elementary charge [C]                                      1.60217648700000E-19
 Electron mass [kg]                                         9.10938215000000E-31
 Electron g factor [ ]                                     -2.00231930436220E+00
 Proton mass [kg]                                           1.67262163700000E-27
 Fine-structure constant                                    7.29735253760000E-03
 Rydberg constant [1/m]                                     1.09737315685270E+07
 Avogadro constant [1/mol]                                  6.02214179000000E+23
 Boltzmann constant [J/K]                                   1.38065040000000E-23
 Atomic mass unit [kg]                                      1.66053878200000E-27
 Bohr radius [m]                                            5.29177208590000E-11

 *** Conversion factors ***

 [u] -> [a.u.]                                              1.82288848426455E+03
 [Angstrom] -> [Bohr] = [a.u.]                              1.88972613288564E+00
 [a.u.] = [Bohr] -> [Angstrom]                              5.29177208590000E-01
 [a.u.] -> [s]                                              2.41888432650478E-17
 [a.u.] -> [fs]                                             2.41888432650478E-02
 [a.u.] -> [J]                                              4.35974393937059E-18
 [a.u.] -> [N]                                              8.23872205491840E-08
 [a.u.] -> [K]                                              3.15774647902944E+05
 [a.u.] -> [kJ/mol]                                         2.62549961709828E+03
 [a.u.] -> [kcal/mol]                                       6.27509468713739E+02
 [a.u.] -> [Pa]                                             2.94210107994716E+13
 [a.u.] -> [bar]                                            2.94210107994716E+08
 [a.u.] -> [atm]                                            2.90362800883016E+08
 [a.u.] -> [eV]                                             2.72113838565563E+01
 [a.u.] -> [Hz]                                             6.57968392072181E+15
 [a.u.] -> [1/cm] (wave numbers)                            2.19474631370540E+05
 [a.u./Bohr**2] -> [1/cm]                                   5.14048714338585E+03
 

 CELL_TOP| Volume [angstrom^3]:                                     13612.533707
 CELL_TOP| Vector a [angstrom    19.648     0.000     0.000   |a| =    19.648000
 CELL_TOP| Vector b [angstrom    20.000    34.641     0.000   |b| =    40.000000
 CELL_TOP| Vector c [angstrom     0.000     0.000    20.000   |c| =    20.000000
 CELL_TOP| Angle (b,c), alpha [degree]:                                90.000000
 CELL_TOP| Angle (a,c), beta  [degree]:                                90.000000
 CELL_TOP| Angle (a,b), gamma [degree]:                                60.000000
 CELL_TOP| Numerically orthorhombic:                                          NO
 CELL_TOP| Periodicity                                                       XYZ


 SUBCELL GRID  INFO FOR THE NONBONDED NEIGHBOR LISTS

    NUMBER OF SUBCELLS             ::                   6        12         7
    NUMBER OF PERIODIC      IMAGES ::                   1         1         1
    NUMBER OF INTERACTING SUBCELLS ::                   2         2         2

 GENERATE|  Preliminary Number of Bonds generated:                             0
 GENERATE|  Achieved consistency in connectivity generation.

 CELL| Volume [angstrom^3]:                                         13612.533707
 CELL| Vector a [angstrom]:      19.648     0.000     0.000   |a| =    19.648000
 CELL| Vector b [angstrom]:      20.000    34.641     0.000   |b| =    40.000000
 CELL| Vector c [angstrom]:       0.000     0.000    20.000   |c| =    20.000000
 CELL| Angle (b,c), alpha [degree]:                                    90.000000
 CELL| Angle (a,c), beta  [degree]:                                    90.000000
 CELL| Angle (a,b), gamma [degree]:                                    60.000000
 CELL| Numerically orthorhombic:                                              NO
 CELL| Periodicity                                                           XYZ

 CELL_REF| Volume [angstrom^3]:                                     13612.533707
 CELL_REF| Vector a [angstrom    19.648     0.000     0.000   |a| =    19.648000
 CELL_REF| Vector b [angstrom    20.000    34.641     0.000   |b| =    40.000000
 CELL_REF| Vector c [angstrom     0.000     0.000    20.000   |c| =    20.000000
 CELL_REF| Angle (b,c), alpha [degree]:                                90.000000
 CELL_REF| Angle (a,c), beta  [degree]:                                90.000000
 CELL_REF| Angle (a,b), gamma [degree]:                                60.000000
 CELL_REF| Numerically orthorhombic:                                          NO
 CELL_REF| Periodicity                                                       XYZ

 *******************************************************************************
 *******************************************************************************
 **                                                                           **
 **     #####                         ##              ##                      **
 **    ##   ##            ##          ##              ##                      **
 **   ##     ##                       ##            ######                    **
 **   ##     ##  ##   ##  ##   #####  ##  ##   ####   ##    #####    #####    **
 **   ##     ##  ##   ##  ##  ##      ## ##   ##      ##   ##   ##  ##   ##   **
 **   ##  ## ##  ##   ##  ##  ##      ####     ###    ##   ######   ######    **
 **    ##  ###   ##   ##  ##  ##      ## ##      ##   ##   ##       ##        **
 **     #######   #####   ##   #####  ##  ##  ####    ##    #####   ##        **
 **           ##                                                    ##        **
 **                                                                           **
 **                                                ... make the atoms dance   **
 **                                                                           **
 **            Copyright (C) by CP2K developers group (2000-2022)             **
 **                      J. Chem. Phys. 152, 194103 (2020)                    **
 **                                                                           **
 *******************************************************************************

 RADII: ORBITAL BASIS in angstrom            Kind   Label     Radius  OCE Radius
                                                1   C       5.464310    5.464310
                                                2   Cx     10.586320   10.586320
                                                3   H       6.136928    6.136928
                                                4   O       4.507742    4.507742

 RADII: SHELL SETS OF ORBITAL BASIS in angstrom   Kind  Label   Set       Radius
                                                     1  C         1     5.464310
                                                     2  Cx        1     1.029760
                                                                  2     2.248558
                                                                  3     3.510222
                                                                  4     5.301536
                                                                  5     8.278841
                                                                  6     2.111957
                                                                  7     3.589446
                                                                  8     6.086067
                                                                  9    10.586320
                                                                 10     1.764030
                                                                 11     3.018919
                                                                 12     6.928919
                                                                 13     2.271820
                                                                 14     6.534266
                                                     3  H         1     6.136928
                                                     4  O         1     4.507742

 RADII: PRIMITIVE GAUSSIANS OF ORBITAL BASIS in anKindomLabel   Set       Radius
                                                     1  C         1     0.802859
                                                                        1.314668
                                                                        2.308781
                                                                        3.176889
                                                                        5.464310
                                                     2  Cx        1     0.020115
                                                                        0.053438
                                                                        0.114577
                                                                        0.218970
                                                                        0.387975
                                                                        0.647712
                                                                        1.029760
                                                     2  Cx        2     0.735149
                                                                        2.248558
                                                     2  Cx        3     3.510222
                                                     2  Cx        4     5.301536
                                                     2  Cx        5     8.278841
                                                     2  Cx        6     0.299696
                                                                        0.653823
                                                                        1.233581
                                                                        2.111957
                                                     2  Cx        7     3.589446
                                                     2  Cx        8     6.086067
                                                     2  Cx        9    10.586320
                                                     2  Cx       10     1.764030
                                                     2  Cx       11     3.018919
                                                     2  Cx       12     6.928919
                                                     2  Cx       13     2.271820
                                                     2  Cx       14     6.534266
                                                     3  H         1     0.531136
                                                                        1.107669
                                                                        2.077823
                                                                        3.655422
                                                                        6.136928
                                                     4  O         1     0.600974
                                                                        0.986050
                                                                        1.751928
                                                                        2.868746
                                                                        4.507742

 RADII: AUXILLIARY BASIS in angstrom         Kind   Label     Radius  OCE Radius
                                                          1   C         no basis
                                                          2   Cx        no basis
                                                          3   H         no basis
                                                          4   O         no basis

 RADII: SHELL SETS OF AUXILLIARY BASIS in angstromKind  Label   Set       Radius
                                                     1   C              no basis
                                                     2   Cx             no basis
                                                     3   H              no basis
                                                     4   O              no basis

 RADII: PRIMITIVE GAUSSIANS OF AUXILLIARY BASIS inKindstLabel   Set       Radius
                                                     1   C              no basis
                                                     2   Cx             no basis
                                                     3   H              no basis
                                                     4   O              no basis

 RADII: LOCAL RI BASIS in angstrom           Kind   Label     Radius  OCE Radius
                                                          1   C         no basis
                                                          2   Cx        no basis
                                                          3   H         no basis
                                                          4   O         no basis

 RADII: SHELL SETS OF LOCAL RI BASIS in angstrom  Kind  Label   Set       Radius
                                                     1   C              no basis
                                                     2   Cx             no basis
                                                     3   H              no basis
                                                     4   O              no basis

 RADII: PRIMITIVE GAUSSIANS OF LOCAL RI BASIS in aKindroLabel   Set       Radius
                                                     1   C              no basis
                                                     2   Cx             no basis
                                                     3   H              no basis
                                                     4   O              no basis

 RADII: CORE CHARGE DISTRIBUTIONS in angstrom          Kind   Label       Radius
                                                          1   C         1.376023
                                                          2   Cx        1.425687
                                                          3   H         0.815723
                                                          4   O         1.017201

 RADII: LOCAL PART OF GTH/ELP PP in angstrom           Kind   Label       Radius
                                                          1   C         0.699284
                                                          3   H         0.393411
                                                          4   O         0.528197

 RADII: NON-LOCAL PART OF GTH PP in angstrom           Kind   Label       Radius
                                                          1   C         0.838527
                                                          3   H         0.000000
                                                          4   O         0.622773

 RADII: ONE CENTER PROJECTORS in angstrom              Kind   Label       Radius
                                                          1   C         0.895066
                                                          2   Cx        0.895384
                                                          3   H         0.712046
                                                          4   O         0.895066

 DISTRIBUTION OF THE MOLECULES                    Process    Number of molecules
                                                        0                      8
                                                        1                      8
                                                        2                      8
                                                        3                      9
                                                        4                      8
                                                        5                      8
                                                        6                      8
                                                        7                      8
                                                        8                      8
                                                        9                      8
                                                       10                      8
                                                       11                      9
                                                       12                      8
                                                       13                      8
                                                       14                      8
                                                       15                      7
                                                      Sum                    129

  Process   Kind   Local molecules (global indices)
        0      1         1
               2
               3
               4
               5
               6
               7
               8
               9
              10
              11
              12
              13
              14
              15
              16
              17
              18
              19
              20
              21        21
              22
              23
              24
              25
              26
              27
              28
              29
              30
              31
              32
              33
              34
              35
              36
              37
              38
              39
              40        40
              41
              42
              43
              44
              45
              46
              47
              48
              49
              50        50
              51
              52
              53
              54
              55
              56
              57
              58
              59
              60
              61
              62
              63
              64
              65
              66
              67
              68        68
              69
              70
              71
              72
              73
              74
              75
              76
              77
              78
              79
              80
              81
              82
              83        83
              84
              85
              86
              87
              88
              89
              90
              91
              92
              93
              94
              95
              96
              97
              98
              99
             100
             101
             102       102
             103
             104
             105
             106
             107
             108
             109
             110
             111
             112
             113
             114
             115
             116
             117
             118
             119
             120
             121       121
             122
             123
             124
             125
             126
             127
             128
             129

 DISTRIBUTION OF THE PARTICLES                    Process    Number of particles
                                                        0                      8
                                                        1                      8
                                                        2                      8
                                                        3                      9
                                                        4                      8
                                                        5                      8
                                                        6                      8
                                                        7                      8
                                                        8                      8
                                                        9                      8
                                                       10                      8
                                                       11                      9
                                                       12                      8
                                                       13                      8
                                                       14                      8
                                                       15                      7
                                                      Sum                    129

  Process   Kind   Local particles (global indices)
        0      1        1    21    40    50    68    83   102
               2
               3      121
               4

 DFT| Spin unrestricted (spin-polarized) Kohn-Sham calculation               UKS
 DFT| Multiplicity                                                             1
 DFT| Number of spin states                                                    2
 DFT| Charge                                                                   0
 DFT| Self-interaction correction (SIC)                                       NO
 DFT| Cutoffs: density                                              1.000000E-10
 DFT|          gradient                                             1.000000E-10
 DFT|          tau                                                  1.000000E-10
 DFT|          cutoff_smoothing_range                               0.000000E+00
 DFT| XC density smoothing                                                  NONE
 DFT| XC derivatives                                                          PW

 FUNCTIONAL| GGA_X_PBE:
 FUNCTIONAL| [1] J. P. Perdew, K. Burke, and M. Ernzerhof, Phys. Rev. Lett. 77, 
 FUNCTIONAL| 3865 (1996), doi: 10.1103/PhysRevLett.77.3865                      
 FUNCTIONAL| Optional external parameters:                                      
 FUNCTIONAL|  * Asymptotic value of the enhancement function                    
 FUNCTIONAL|  * Coefficient of the 2nd order expansion                          
 FUNCTIONAL| {scale=0.550, spin-polarized}                                      
 FUNCTIONAL| GGA_C_PBE:
 FUNCTIONAL| [1] J. P. Perdew, K. Burke, and M. Ernzerhof, Phys. Rev. Lett. 77, 
 FUNCTIONAL| 3865 (1996), doi: 10.1103/PhysRevLett.77.3865                      
 FUNCTIONAL| Optional external parameters:                                      
 FUNCTIONAL|  * beta constant                                                   
 FUNCTIONAL|  * (1 - ln(2))/Pi^2 in the PBE                                     
 FUNCTIONAL|  * Multiplies the A t^2 term. Used in the SPBE functional          
 FUNCTIONAL| {scale=1.000, spin-polarized}                                      


 QS| Method:                                                                GAPW
 QS| Density plane wave grid type                        NON-SPHERICAL FULLSPACE
 QS| Number of grid levels:                                                    5
 QS| Density cutoff [a.u.]:                                                300.0
 QS| Multi grid cutoff [a.u.]: 1) grid level                               300.0
 QS|                           2) grid level                               100.0
 QS|                           3) grid level                                33.3
 QS|                           4) grid level                                11.1
 QS|                           5) grid level                                 3.7
 QS| Grid level progression factor:                                          3.0
 QS| Relative density cutoff [a.u.]:                                        25.0
 QS| Interaction thresholds: eps_pgf_orb:                                1.0E-05
 QS|                         eps_filter_matrix:                          0.0E+00
 QS|                         eps_core_charge:                            1.0E-12
 QS|                         eps_rho_gspace:                             1.0E-10
 QS|                         eps_rho_rspace:                             1.0E-10
 QS|                         eps_gvg_rspace:                             1.0E-05
 QS|                         eps_ppl:                                    1.0E-02
 QS|                         eps_ppnl:                                   1.0E-07
 QS| GAPW|                   eps_fit:                                    1.0E-04
 QS| GAPW|                   eps_iso:                                    1.0E-12
 QS| GAPW|                   eps_svd:                                    1.0E-08
 QS| GAPW|                   eps_cpc:                                    1.0E-10
 QS| GAPW|   atom-r-grid: quadrature:                                     GC_LOG
 QS| GAPW|      atom-s-grid:  max l :                                          6
 QS| GAPW|      max_l_rho0 :                                                   2


 ATOMIC KIND INFORMATION

  1. Atomic kind: C                                     Number of atoms:     111

     Orbital Basis Set                                        DZVP-MOLOPT-SR-GTH

       Number of orbital shell sets:                                           1
       Number of orbital shells:                                               5
       Number of primitive Cartesian functions:                                5
       Number of Cartesian basis functions:                                   14
       Number of spherical basis functions:                                   13
       Norm type:                                                              2

       Normalised Cartesian orbitals:

                        Set   Shell   Orbital            Exponent    Coefficient

                          1       1    2s                5.605331       0.322515
                                                         2.113016       0.213043
                                                         0.769911      -0.209686
                                                         0.348157      -0.219794
                                                         0.128212      -0.022789

                          1       2    3s                5.605331       0.552234
                                                         2.113016       0.082072
                                                         0.769911       0.007843
                                                         0.348157       0.136893
                                                         0.128212       0.074283

                          1       3    3px               5.605331      -0.703879
                                                         2.113016      -0.642521
                                                         0.769911      -0.374851
                                                         0.348157      -0.139743
                                                         0.128212      -0.027849
                          1       3    3py               5.605331      -0.703879
                                                         2.113016      -0.642521
                                                         0.769911      -0.374851
                                                         0.348157      -0.139743
                                                         0.128212      -0.027849
                          1       3    3pz               5.605331      -0.703879
                                                         2.113016      -0.642521
                                                         0.769911      -0.374851
                                                         0.348157      -0.139743
                                                         0.128212      -0.027849

                          1       4    4px               5.605331      -0.480376
                                                         2.113016      -0.552894
                                                         0.769911      -0.316145
                                                         0.348157       0.210505
                                                         0.128212       0.076095
                          1       4    4py               5.605331      -0.480376
                                                         2.113016      -0.552894
                                                         0.769911      -0.316145
                                                         0.348157       0.210505
                                                         0.128212       0.076095
                          1       4    4pz               5.605331      -0.480376
                                                         2.113016      -0.552894
                                                         0.769911      -0.316145
                                                         0.348157       0.210505
                                                         0.128212       0.076095

                          1       5    4dx2              5.605331       0.640026
                                                         2.113016       0.274300
                                                         0.769911       0.446711
                                                         0.348157       0.028674
                                                         0.128212       0.029790
                          1       5    4dxy              5.605331       1.108557
                                                         2.113016       0.475102
                                                         0.769911       0.773726
                                                         0.348157       0.049666
                                                         0.128212       0.051599
                          1       5    4dxz              5.605331       1.108557
                                                         2.113016       0.475102
                                                         0.769911       0.773726
                                                         0.348157       0.049666
                                                         0.128212       0.051599
                          1       5    4dy2              5.605331       0.640026
                                                         2.113016       0.274300
                                                         0.769911       0.446711
                                                         0.348157       0.028674
                                                         0.128212       0.029790
                          1       5    4dyz              5.605331       1.108557
                                                         2.113016       0.475102
                                                         0.769911       0.773726
                                                         0.348157       0.049666
                                                         0.128212       0.051599
                          1       5    4dz2              5.605331       0.640026
                                                         2.113016       0.274300
                                                         0.769911       0.446711
                                                         0.348157       0.028674
                                                         0.128212       0.029790

     Auxiliary Fit Basis Set                                                FIT3

       Number of orbital shell sets:                                           6
       Number of orbital shells:                                               6
       Number of primitive Cartesian functions:                                6
       Number of Cartesian basis functions:                                   12
       Number of spherical basis functions:                                   12
       Norm type:                                                              2

       Normalised Cartesian orbitals:

                        Set   Shell   Orbital            Exponent    Coefficient

                          1       1    1s                0.143490       0.166160

                          2       1    1s                0.450840       0.392127

                          3       1    1s                4.420950       2.172935

                          4       1    1px               0.152150       0.135450
                          4       1    1py               0.152150       0.135450
                          4       1    1pz               0.152150       0.135450

                          5       1    1px               0.670820       0.865362
                          5       1    1py               0.670820       0.865362
                          5       1    1pz               0.670820       0.865362

                          6       1    1px               3.053900       5.754513
                          6       1    1py               3.053900       5.754513
                          6       1    1pz               3.053900       5.754513

       Atomic covalent radius [Angstrom]:                                  0.770

       Atomic van der Waals radius [Angstrom]:                             1.700

     The atoms of this atomic kind are PAW atoms (GAPW):
       Hard Gaussian function radius:                                      1.512
       Rho0 radius:                                                        1.512
       Maximum GTO radius used for PAW projector construction:            24.566

     GAPW Soft Basis Set                                 DZVP-MOLOPT-SR-GTH_soft

       Number of orbital shell sets:                                           1
       Number of orbital shells:                                               5
       Number of primitive Cartesian functions:                                4
       Number of Cartesian basis functions:                                   14
       Number of spherical basis functions:                                   13
       Norm type:                                                              2

       Normalised Cartesian orbitals:

                        Set   Shell   Orbital            Exponent    Coefficient

                          1       1    2s                2.113016       0.213043
                                                         0.769911      -0.209686
                                                         0.348157      -0.219794
                                                         0.128212      -0.022789

                          1       2    3s                2.113016       0.082072
                                                         0.769911       0.007843
                                                         0.348157       0.136893
                                                         0.128212       0.074283

                          1       3    3px               2.113016      -0.642521
                                                         0.769911      -0.374851
                                                         0.348157      -0.139743
                                                         0.128212      -0.027849
                          1       3    3py               2.113016      -0.642521
                                                         0.769911      -0.374851
                                                         0.348157      -0.139743
                                                         0.128212      -0.027849
                          1       3    3pz               2.113016      -0.642521
                                                         0.769911      -0.374851
                                                         0.348157      -0.139743
                                                         0.128212      -0.027849

                          1       4    4px               2.113016      -0.552894
                                                         0.769911      -0.316145
                                                         0.348157       0.210505
                                                         0.128212       0.076095
                          1       4    4py               2.113016      -0.552894
                                                         0.769911      -0.316145
                                                         0.348157       0.210505
                                                         0.128212       0.076095
                          1       4    4pz               2.113016      -0.552894
                                                         0.769911      -0.316145
                                                         0.348157       0.210505
                                                         0.128212       0.076095

                          1       5    4dx2              2.113016       0.274300
                                                         0.769911       0.446711
                                                         0.348157       0.028674
                                                         0.128212       0.029790
                          1       5    4dxy              2.113016       0.475102
                                                         0.769911       0.773726
                                                         0.348157       0.049666
                                                         0.128212       0.051599
                          1       5    4dxz              2.113016       0.475102
                                                         0.769911       0.773726
                                                         0.348157       0.049666
                                                         0.128212       0.051599
                          1       5    4dy2              2.113016       0.274300
                                                         0.769911       0.446711
                                                         0.348157       0.028674
                                                         0.128212       0.029790
                          1       5    4dyz              2.113016       0.475102
                                                         0.769911       0.773726
                                                         0.348157       0.049666
                                                         0.128212       0.051599
                          1       5    4dz2              2.113016       0.274300
                                                         0.769911       0.446711
                                                         0.348157       0.028674
                                                         0.128212       0.029790

     GTH Potential information for                                       GTH-PBE

       Description:                       Goedecker-Teter-Hutter pseudopotential
                                           Goedecker et al., PRB 54, 1703 (1996)
                                          Hartwigsen et al., PRB 58, 3641 (1998)
                                                      Krack, TCA 114, 145 (2005)

       Gaussian exponent of the core charge distribution:               4.364419
       Electronic configuration (s p d ...):                               2   2

       Parameters of the local part of the GTH pseudopotential:

                          rloc        C1          C2          C3          C4
                        0.338471   -8.803674    1.339211

       Parameters of the non-local part of the GTH pseudopotential:

                   l      r(l)      h(i,j,l)

                   0    0.302576    9.622487
                   1    0.291507

  2. Atomic kind: Cx                                    Number of atoms:       1

     Orbital Basis Set                                               aug-pcseg-2

       Number of orbital shell sets:                                          14
       Number of orbital shells:                                              14
       Number of primitive Cartesian functions:                               24
       Number of Cartesian basis functions:                                   55
       Number of spherical basis functions:                                   46
       Norm type:                                                              2

       Normalised Cartesian orbitals:

                        Set   Shell   Orbital            Exponent    Coefficient

                          1       1    1s             7319.990000       0.349375
                                                      1098.180000       0.650557
                                                       250.014000       1.096680
                                                        70.758600       1.627573
                                                        22.859500       1.933206
                                                         8.039360       1.515585
                                                         2.893090       0.510144

                          2       1    1s                5.216400      -0.507287
                                                         0.556124       0.494060

                          3       1    1s                0.228813       0.235787

                          4       1    1s                0.093634       0.120638

                          5       1    1s                0.035418       0.058187

                          6       1    1px              33.985500       1.362795
                                                         7.729570       1.535057
                                                         2.249540       1.244013
                                                         0.767681       0.729116
                          6       1    1py              33.985500       1.362795
                                                         7.729570       1.535057
                                                         2.249540       1.244013
                                                         0.767681       0.729116
                          6       1    1pz              33.985500       1.362795
                                                         7.729570       1.535057
                                                         2.249540       1.244013
                                                         0.767681       0.729116

                          7       1    1px               0.263283       0.268824
                          7       1    1py               0.263283       0.268824
                          7       1    1pz               0.263283       0.268824

                          8       1    1px               0.084874       0.065300
                          8       1    1py               0.084874       0.065300
                          8       1    1pz               0.084874       0.065300

                          9       1    1px               0.025704       0.014670
                          9       1    1py               0.025704       0.014670
                          9       1    1pz               0.025704       0.014670

                         10       1    1dx2              1.400000       2.965743
                         10       1    1dxy              1.400000       5.136818
                         10       1    1dxz              1.400000       5.136818
                         10       1    1dy2              1.400000       2.965743
                         10       1    1dyz              1.400000       5.136818
                         10       1    1dz2              1.400000       2.965743

                         11       1    1dx2              0.450000       0.406941
                         11       1    1dxy              0.450000       0.704842
                         11       1    1dxz              0.450000       0.704842
                         11       1    1dy2              0.450000       0.406941
                         11       1    1dyz              0.450000       0.704842
                         11       1    1dz2              0.450000       0.406941

                         12       1    1dx2              0.077111       0.018572
                         12       1    1dxy              0.077111       0.032168
                         12       1    1dxz              0.077111       0.032168
                         12       1    1dy2              0.077111       0.018572
                         12       1    1dyz              0.077111       0.032168
                         12       1    1dz2              0.077111       0.018572

                         13       1    1fx3              0.950000       1.311694
                         13       1    1fx2y             0.950000       2.933037
                         13       1    1fx2z             0.950000       2.933037
                         13       1    1fxy2             0.950000       2.933037
                         13       1    1fxyz             0.950000       5.080169
                         13       1    1fxz2             0.950000       2.933037
                         13       1    1fy3              0.950000       1.311694
                         13       1    1fy2z             0.950000       2.933037
                         13       1    1fyz2             0.950000       2.933037
                         13       1    1fz3              0.950000       1.311694

                         14       1    1fx3              0.102810       0.008811
                         14       1    1fx2y             0.102810       0.019702
                         14       1    1fx2z             0.102810       0.019702
                         14       1    1fxy2             0.102810       0.019702
                         14       1    1fxyz             0.102810       0.034126
                         14       1    1fxz2             0.102810       0.019702
                         14       1    1fy3              0.102810       0.008811
                         14       1    1fy2z             0.102810       0.019702
                         14       1    1fyz2             0.102810       0.019702
                         14       1    1fz3              0.102810       0.008811

     Auxiliary Fit Basis Set                                          aug-admm-2

       Number of orbital shell sets:                                           3
       Number of orbital shells:                                              10
       Number of primitive Cartesian functions:                               12
       Number of Cartesian basis functions:                                   26
       Number of spherical basis functions:                                   24
       Norm type:                                                              2

       Normalised Cartesian orbitals:

                        Set   Shell   Orbital            Exponent    Coefficient

                          1       1    1s              109.016000       4.923462
                                                        18.264600       5.452682
                                                         4.347920       0.000000
                                                         0.481253       0.000000
                                                         0.143588       0.000000
                                                         0.040429       0.000000

                          1       2    2s              109.016000       0.000000
                                                        18.264600       0.000000
                                                         4.347920       2.145958
                                                         0.481253       0.000000
                                                         0.143588       0.000000
                                                         0.040429       0.000000

                          1       3    3s              109.016000       0.000000
                                                        18.264600       0.000000
                                                         4.347920       0.000000
                                                         0.481253       0.411804
                                                         0.143588       0.000000
                                                         0.040429       0.000000

                          1       4    4s              109.016000       0.000000
                                                        18.264600       0.000000
                                                         4.347920       0.000000
                                                         0.481253       0.000000
                                                         0.143588       0.166245
                                                         0.040429       0.000000

                          1       5    5s              109.016000       0.000000
                                                        18.264600       0.000000
                                                         4.347920       0.000000
                                                         0.481253       0.000000
                                                         0.143588       0.000000
                                                         0.040429       0.064258

                          2       1    1px               2.823390       1.538017
                                                         0.590232       0.604745
                                                         0.152426       0.000000
                                                         0.038107       0.000000
                          2       1    1py               2.823390       1.538017
                                                         0.590232       0.604745
                                                         0.152426       0.000000
                                                         0.038107       0.000000
                          2       1    1pz               2.823390       1.538017
                                                         0.590232       0.604745
                                                         0.152426       0.000000
                                                         0.038107       0.000000

                          2       2    2px               2.823390       0.000000
                                                         0.590232       0.000000
                                                         0.152426       0.135758
                                                         0.038107       0.000000
                          2       2    2py               2.823390       0.000000
                                                         0.590232       0.000000
                                                         0.152426       0.135758
                                                         0.038107       0.000000
                          2       2    2pz               2.823390       0.000000
                                                         0.590232       0.000000
                                                         0.152426       0.135758
                                                         0.038107       0.000000

                          2       3    3px               2.823390       0.000000
                                                         0.590232       0.000000
                                                         0.152426       0.000000
                                                         0.038107       0.023999
                          2       3    3py               2.823390       0.000000
                                                         0.590232       0.000000
                                                         0.152426       0.000000
                                                         0.038107       0.023999
                          2       3    3pz               2.823390       0.000000
                                                         0.590232       0.000000
                                                         0.152426       0.000000
                                                         0.038107       0.023999

                          3       1    1dx2              0.800000       1.113825
                                                         0.114320       0.000000
                          3       1    1dxy              0.800000       1.929201
                                                         0.114320       0.000000
                          3       1    1dxz              0.800000       1.929201
                                                         0.114320       0.000000
                          3       1    1dy2              0.800000       1.113825
                                                         0.114320       0.000000
                          3       1    1dyz              0.800000       1.929201
                                                         0.114320       0.000000
                          3       1    1dz2              0.800000       1.113825
                                                         0.114320       0.000000

                          3       2    2dx2              0.800000       0.000000
                                                         0.114320       0.036993
                          3       2    2dxy              0.800000       0.000000
                                                         0.114320       0.064074
                          3       2    2dxz              0.800000       0.000000
                                                         0.114320       0.064074
                          3       2    2dy2              0.800000       0.000000
                                                         0.114320       0.036993
                          3       2    2dyz              0.800000       0.000000
                                                         0.114320       0.064074
                          3       2    2dz2              0.800000       0.000000
                                                         0.114320       0.036993

       Atomic covalent radius [Angstrom]:                                  0.770

       Atomic van der Waals radius [Angstrom]:                             1.700

     The atoms of this atomic kind are PAW atoms (GAPW):
       Hard Gaussian function radius:                                      1.512
       Rho0 radius:                                                        1.512
       Maximum GTO radius used for PAW projector construction:            24.566

     GAPW Soft Basis Set                                        aug-pcseg-2_soft

       Number of orbital shell sets:                                          14
       Number of orbital shells:                                              14
       Number of primitive Cartesian functions:                               15
       Number of Cartesian basis functions:                                   55
       Number of spherical basis functions:                                   46
       Norm type:                                                              2

       Normalised Cartesian orbitals:

                        Set   Shell   Orbital            Exponent    Coefficient

                          1       1    1s                2.893090       0.510144

                          2       1    1s                0.556124       0.494060

                          3       1    1s                0.228813       0.235787

                          4       1    1s                0.093634       0.120638

                          5       1    1s                0.035418       0.058187

                          6       1    1px               2.249540       1.244013
                                                         0.767681       0.729116
                          6       1    1py               2.249540       1.244013
                                                         0.767681       0.729116
                          6       1    1pz               2.249540       1.244013
                                                         0.767681       0.729116

                          7       1    1px               0.263283       0.268824
                          7       1    1py               0.263283       0.268824
                          7       1    1pz               0.263283       0.268824

                          8       1    1px               0.084874       0.065300
                          8       1    1py               0.084874       0.065300
                          8       1    1pz               0.084874       0.065300

                          9       1    1px               0.025704       0.014670
                          9       1    1py               0.025704       0.014670
                          9       1    1pz               0.025704       0.014670

                         10       1    1dx2              1.400000       2.965743
                         10       1    1dxy              1.400000       5.136818
                         10       1    1dxz              1.400000       5.136818
                         10       1    1dy2              1.400000       2.965743
                         10       1    1dyz              1.400000       5.136818
                         10       1    1dz2              1.400000       2.965743

                         11       1    1dx2              0.450000       0.406941
                         11       1    1dxy              0.450000       0.704842
                         11       1    1dxz              0.450000       0.704842
                         11       1    1dy2              0.450000       0.406941
                         11       1    1dyz              0.450000       0.704842
                         11       1    1dz2              0.450000       0.406941

                         12       1    1dx2              0.077111       0.018572
                         12       1    1dxy              0.077111       0.032168
                         12       1    1dxz              0.077111       0.032168
                         12       1    1dy2              0.077111       0.018572
                         12       1    1dyz              0.077111       0.032168
                         12       1    1dz2              0.077111       0.018572

                         13       1    1fx3              0.950000       1.311694
                         13       1    1fx2y             0.950000       2.933037
                         13       1    1fx2z             0.950000       2.933037
                         13       1    1fxy2             0.950000       2.933037
                         13       1    1fxyz             0.950000       5.080169
                         13       1    1fxz2             0.950000       2.933037
                         13       1    1fy3              0.950000       1.311694
                         13       1    1fy2z             0.950000       2.933037
                         13       1    1fyz2             0.950000       2.933037
                         13       1    1fz3              0.950000       1.311694

                         14       1    1fx3              0.102810       0.008811
                         14       1    1fx2y             0.102810       0.019702
                         14       1    1fx2z             0.102810       0.019702
                         14       1    1fxy2             0.102810       0.019702
                         14       1    1fxyz             0.102810       0.034126
                         14       1    1fxz2             0.102810       0.019702
                         14       1    1fy3              0.102810       0.008811
                         14       1    1fy2z             0.102810       0.019702
                         14       1    1fyz2             0.102810       0.019702
                         14       1    1fz3              0.102810       0.008811

     AE Potential information for                                            ALL

       Description:                                       All-electron potential
                                          Krack, Parrinello, PCCP 2, 2105 (2000)

       Gaussian exponent of the core charge distribution:               4.109048
       Electronic configuration (s p d ...):                           4   2   0

  3. Atomic kind: H                                     Number of atoms:      16

     Orbital Basis Set                                        DZVP-MOLOPT-SR-GTH

       Number of orbital shell sets:                                           1
       Number of orbital shells:                                               3
       Number of primitive Cartesian functions:                                5
       Number of Cartesian basis functions:                                    5
       Number of spherical basis functions:                                    5
       Norm type:                                                              2

       Normalised Cartesian orbitals:

                        Set   Shell   Orbital            Exponent    Coefficient

                          1       1    2s               10.068468      -0.133023
                                                         2.680223      -0.177618
                                                         0.791502      -0.258419
                                                         0.239116      -0.107525
                                                         0.082193      -0.014019

                          1       2    3s               10.068468       0.344673
                                                         2.680223       1.819821
                                                         0.791502      -0.999069
                                                         0.239116       0.017430
                                                         0.082193       0.082660

                          1       3    3px              10.068468       0.155326
                                                         2.680223       0.367157
                                                         0.791502       0.311480
                                                         0.239116       0.080105
                                                         0.082193       0.033440
                          1       3    3py              10.068468       0.155326
                                                         2.680223       0.367157
                                                         0.791502       0.311480
                                                         0.239116       0.080105
                                                         0.082193       0.033440
                          1       3    3pz              10.068468       0.155326
                                                         2.680223       0.367157
                                                         0.791502       0.311480
                                                         0.239116       0.080105
                                                         0.082193       0.033440

     Auxiliary Fit Basis Set                                                FIT3

       Number of orbital shell sets:                                           3
       Number of orbital shells:                                               3
       Number of primitive Cartesian functions:                                3
       Number of Cartesian basis functions:                                    3
       Number of spherical basis functions:                                    3
       Norm type:                                                              2

       Normalised Cartesian orbitals:

                        Set   Shell   Orbital            Exponent    Coefficient

                          1       1    1s                0.113290       0.139173

                          2       1    1s                0.551250       0.455955

                          3       1    1s                3.585030       1.856862

       Atomic covalent radius [Angstrom]:                                  0.320

       Atomic van der Waals radius [Angstrom]:                             1.090

     The atoms of this atomic kind are PAW atoms (GAPW):
       Hard Gaussian function radius:                                      1.200
       Rho0 radius:                                                        1.200
       Maximum GTO radius used for PAW projector construction:            24.566

     GAPW Soft Basis Set                                 DZVP-MOLOPT-SR-GTH_soft

       Number of orbital shell sets:                                           1
       Number of orbital shells:                                               3
       Number of primitive Cartesian functions:                                4
       Number of Cartesian basis functions:                                    5
       Number of spherical basis functions:                                    5
       Norm type:                                                              2

       Normalised Cartesian orbitals:

                        Set   Shell   Orbital            Exponent    Coefficient

                          1       1    2s                2.680223      -0.177618
                                                         0.791502      -0.258419
                                                         0.239116      -0.107525
                                                         0.082193      -0.014019

                          1       2    3s                2.680223       1.819821
                                                         0.791502      -0.999069
                                                         0.239116       0.017430
                                                         0.082193       0.082660

                          1       3    3px               2.680223       0.367157
                                                         0.791502       0.311480
                                                         0.239116       0.080105
                                                         0.082193       0.033440
                          1       3    3py               2.680223       0.367157
                                                         0.791502       0.311480
                                                         0.239116       0.080105
                                                         0.082193       0.033440
                          1       3    3pz               2.680223       0.367157
                                                         0.791502       0.311480
                                                         0.239116       0.080105
                                                         0.082193       0.033440

     GTH Potential information for                                       GTH-PBE

       Description:                       Goedecker-Teter-Hutter pseudopotential
                                           Goedecker et al., PRB 54, 1703 (1996)
                                          Hartwigsen et al., PRB 58, 3641 (1998)
                                                      Krack, TCA 114, 145 (2005)

       Gaussian exponent of the core charge distribution:              12.500000
       Electronic configuration (s p d ...):                                   1

       Parameters of the local part of the GTH pseudopotential:

                          rloc        C1          C2          C3          C4
                        0.200000   -4.178900    0.724463

  4. Atomic kind: O                                     Number of atoms:       1

     Orbital Basis Set                                        DZVP-MOLOPT-SR-GTH

       Number of orbital shell sets:                                           1
       Number of orbital shells:                                               5
       Number of primitive Cartesian functions:                                5
       Number of Cartesian basis functions:                                   14
       Number of spherical basis functions:                                   13
       Norm type:                                                              2

       Normalised Cartesian orbitals:

                        Set   Shell   Orbital            Exponent    Coefficient

                          1       1    2s               10.389228       0.396646
                                                         3.849621       0.208811
                                                         1.388401      -0.301641
                                                         0.496955      -0.274061
                                                         0.162492      -0.033677

                          1       2    3s               10.389228       0.303673
                                                         3.849621       0.240943
                                                         1.388401      -0.313066
                                                         0.496955      -0.043055
                                                         0.162492       0.213991

                          1       3    3px              10.389228      -1.530415
                                                         3.849621      -1.371928
                                                         1.388401      -0.761951
                                                         0.496955      -0.253695
                                                         0.162492      -0.035541
                          1       3    3py              10.389228      -1.530415
                                                         3.849621      -1.371928
                                                         1.388401      -0.761951
                                                         0.496955      -0.253695
                                                         0.162492      -0.035541
                          1       3    3pz              10.389228      -1.530415
                                                         3.849621      -1.371928
                                                         1.388401      -0.761951
                                                         0.496955      -0.253695
                                                         0.162492      -0.035541

                          1       4    4px              10.389228      -0.565392
                                                         3.849621      -0.038231
                                                         1.388401      -0.382373
                                                         0.496955       0.179070
                                                         0.162492       0.122714
                          1       4    4py              10.389228      -0.565392
                                                         3.849621      -0.038231
                                                         1.388401      -0.382373
                                                         0.496955       0.179070
                                                         0.162492       0.122714
                          1       4    4pz              10.389228      -0.565392
                                                         3.849621      -0.038231
                                                         1.388401      -0.382373
                                                         0.496955       0.179070
                                                         0.162492       0.122714

                          1       5    4dx2             10.389228       1.867377
                                                         3.849621       0.670994
                                                         1.388401       1.353441
                                                         0.496955       0.273538
                                                         0.162492       0.006620
                          1       5    4dxy             10.389228       3.234392
                                                         3.849621       1.162195
                                                         1.388401       2.344229
                                                         0.496955       0.473781
                                                         0.162492       0.011466
                          1       5    4dxz             10.389228       3.234392
                                                         3.849621       1.162195
                                                         1.388401       2.344229
                                                         0.496955       0.473781
                                                         0.162492       0.011466
                          1       5    4dy2             10.389228       1.867377
                                                         3.849621       0.670994
                                                         1.388401       1.353441
                                                         0.496955       0.273538
                                                         0.162492       0.006620
                          1       5    4dyz             10.389228       3.234392
                                                         3.849621       1.162195
                                                         1.388401       2.344229
                                                         0.496955       0.473781
[...]
 flops    64 x    44 x    64           5443485696     100.0%      0.0%      0.0%
 flops   392 x    44 x    64           7113351168     100.0%      0.0%      0.0%
 flops   392 x    64 x    44           7113351168     100.0%      0.0%      0.0%
 flops   396 x    64 x    44           7185936384     100.0%      0.0%      0.0%
 flops   396 x    44 x    64           7185936384     100.0%      0.0%      0.0%
 flops    13 x    46 x    13           7895694196     100.0%      0.0%      0.0%
 flops    46 x    13 x    13           7926230468     100.0%      0.0%      0.0%
 flops    13 x    13 x    46           8125027196     100.0%      0.0%      0.0%
 flops   397 x    44 x   392           8655184384     100.0%      0.0%      0.0%
 flops   392 x    44 x   397           8655184384     100.0%      0.0%      0.0%
 flops   397 x    44 x   396           8743502592     100.0%      0.0%      0.0%
 flops   396 x    44 x   397           8743502592     100.0%      0.0%      0.0%
 flops    44 x    64 x   397          10356707328     100.0%      0.0%      0.0%
 flops    64 x    44 x   397          10356707328     100.0%      0.0%      0.0%
 flops    13 x    13 x     5          12915972030     100.0%      0.0%      0.0%
 flops    13 x     5 x    13          13147672720     100.0%      0.0%      0.0%
 flops     5 x    13 x    13          13214050850     100.0%      0.0%      0.0%
 flops   397 x    44 x    64          14408165376     100.0%      0.0%      0.0%
 flops   397 x    64 x    44          14408165376     100.0%      0.0%      0.0%
 flops    12 x    12 x    44          16666062336     100.0%      0.0%      0.0%
 flops   397 x    44 x   397          17531164288     100.0%      0.0%      0.0%
 flops   392 x    64 x   392          18646204416     100.0%      0.0%      0.0%
 flops   396 x    64 x   392          18836471808     100.0%      0.0%      0.0%
 flops   392 x    64 x   396          18836471808     100.0%      0.0%      0.0%
 flops   396 x    64 x   396          19028680704     100.0%      0.0%      0.0%
 flops    64 x    64 x   392          22311862272     100.0%      0.0%      0.0%
 flops    64 x    64 x   396          22539534336     100.0%      0.0%      0.0%
 flops    64 x    64 x    64          23753392128     100.0%      0.0%      0.0%
 flops    46 x    32 x    13          24253349120     100.0%      0.0%      0.0%
 flops    13 x    32 x    46          24253349120     100.0%      0.0%      0.0%
 flops    13 x    13 x    44          24286213952     100.0%      0.0%      0.0%
 flops     5 x    32 x    13          27512692480     100.0%      0.0%      0.0%
 flops    13 x    32 x     5          27512692480     100.0%      0.0%      0.0%
 flops   392 x    64 x    64          31040077824     100.0%      0.0%      0.0%
 flops   396 x    64 x    64          31356813312     100.0%      0.0%      0.0%
 flops    13 x    12 x    13          34427441568     100.0%      0.0%      0.0%
 flops   397 x    64 x   392          37768077312     100.0%      0.0%      0.0%
 flops   392 x    64 x   397          37768077312     100.0%      0.0%      0.0%
 flops   396 x    64 x   397          38153465856     100.0%      0.0%      0.0%
 flops   397 x    64 x   396          38153465856     100.0%      0.0%      0.0%
 flops    64 x    64 x   397          45192904704     100.0%      0.0%      0.0%
 flops   397 x    64 x    64          62871994368     100.0%      0.0%      0.0%
 flops    12 x    12 x    64          72724635648     100.0%      0.0%      0.0%
 flops   397 x    64 x   397          76499625984     100.0%      0.0%      0.0%
 flops    13 x    13 x    64         105976206336     100.0%      0.0%      0.0%
 flops    13 x    13 x    13         243571169556     100.0%      0.0%      0.0%
 flops    13 x    32 x    13         653766760192     100.0%      0.0%      0.0%
 flops inhomo. stacks                           0       0.0%      0.0%      0.0%
 flops total                         2.106476E+12     100.0%      0.0%      0.0%
 flops max/rank                    143.044606E+09     100.0%      0.0%      0.0%
 matmuls inhomo. stacks                         0       0.0%      0.0%      0.0%
 matmuls total                          185471877     100.0%      0.0%      0.0%
 number of processed stacks                907318     100.0%      0.0%      0.0%
 average stack size                                   204.4       0.0       0.0
 marketing flops                     2.725298E+12
 -------------------------------------------------------------------------------
 # multiplications                           5318
 max memory usage/rank               3.109425E+09
 # max total images/rank                        1
 # max 3D layers                                1
 # MPI messages exchanged                  510528
 MPI messages size (bytes):
  total size                       114.272879E+09
  min size                           0.000000E+00
  max size                           1.321216E+06
  average size                     223.832734E+03
 MPI breakdown and total messages size (bytes):
             size <=      128                 600                        0
       128 < size <=     8192                   0                        0
      8192 < size <=    32768              212688               5922300672
     32768 < size <=   131072                7368                916150464
    131072 < size <=  4194304              289872             107434314624
   4194304 < size <= 16777216                   0                        0
  16777216 < size                               0                        0
 -------------------------------------------------------------------------------
 -                                                                             -
 -                      DBCSR MESSAGE PASSING PERFORMANCE                      -
 -                                                                             -
 -------------------------------------------------------------------------------
 ROUTINE             CALLS      AVE VOLUME [Bytes]
 MP_Bcast              147                     12.
 MP_Allreduce        27345                     22.
 MP_Alltoall         41352                  87201.
 MP_ISend            85072                  89134.
 MP_IRecv            85072                  86654.
 -------------------------------------------------------------------------------

 -------------------------------------------------------------------------------
 -                                                                             -
 -                                DBM STATISTICS                               -
 -                                                                             -
 -------------------------------------------------------------------------------
    M  x    N  x    K                                          COUNT     PERCENT
 -------------------------------------------------------------------------------

 -------------------------------------------------------------------------------
 -                                                                             -
 -                                GRID STATISTICS                              -
 -                                                                             -
 -------------------------------------------------------------------------------
 LP    KERNEL             BACKEND                              COUNT     PERCENT
 4     collocate general  REF                               11396916      22.49%
 1     collocate general  REF                                9378480      18.51%
 2     collocate general  REF                                6082994      12.00%
 4     integrate general  REF                                5698462      11.24%
 1     integrate general  REF                                4719638       9.31%
 0     collocate general  REF                                4243296       8.37%
 2     integrate general  REF                                3215920       6.35%
 3     collocate general  REF                                2431536       4.80%
 0     integrate general  REF                                2138568       4.22%
 3     integrate general  REF                                1215984       2.40%
 5     collocate general  REF                                 103488       0.20%
 5     integrate general  REF                                  51744       0.10%
 6     collocate general  REF                                   1232       0.00%
 6     integrate general  REF                                    616       0.00%
 -------------------------------------------------------------------------------

 MEMORY| Estimated peak process memory [MiB]                                2966

 -------------------------------------------------------------------------------
 ----                             MULTIGRID INFO                            ----
 -------------------------------------------------------------------------------
 count for grid        1:         501366          cutoff [a.u.]          300.00
 count for grid        2:         229836          cutoff [a.u.]          100.00
 count for grid        3:         260632          cutoff [a.u.]           33.33
 count for grid        4:         136785          cutoff [a.u.]           11.11
 count for grid        5:          13118          cutoff [a.u.]            3.70
 total gridlevel count  :        1141737

 -------------------------------------------------------------------------------
 -                                                                             -
 -                         MESSAGE PASSING PERFORMANCE                         -
 -                                                                             -
 -------------------------------------------------------------------------------

 ROUTINE             CALLS      AVE VOLUME [Bytes]
 MP_Group                5
 MP_Bcast           163718                  13915.
 MP_Allreduce       210004                   7679.
 MP_Sync              2641
 MP_Alltoall          9511              116340362.
 MP_SendRecv         27720                 470869.
 MP_ISendRecv        23070                 431785.
 MP_Wait             72681
 MP_comm_split         608
 MP_ISend            43140                2878813.
 MP_IRecv            43140                2880449.
 MP_Recv               112                 404992.
 MP_Write_All            9                5925000.
 -------------------------------------------------------------------------------


 -------------------------------------------------------------------------------
 -                                                                             -
 -                           R E F E R E N C E S                               -
 -                                                                             -
 -------------------------------------------------------------------------------
 
 CP2K version 2023.1, the CP2K developers group (2023).
 CP2K is freely available from https://www.cp2k.org/ .

 Kuehne,Thomas D.; Iannuzzi,Marcella; Del Ben,Mauro;
 Rybkin,Vladimir V.; Seewald,Patrick; Stein,Frederick; Laino,Teodoro;
 Khaliullin,Rustam Z.; Schuett,Ole; Schiffmann,Florian; Golze,Dorothea;
 Wilhelm,Jan; Chulkov,Sergey; Bani-Hashemian,Mohammad Hossein;
 Weber,Valery; Borstnik,Urban; Taillefumier,Mathieu;
 Jakobovits,Alice Shoshana; Lazzaro,Alfio; Pabst,Hans; Mueller,Tiziano;
 Schade,Robert; Guidon,Manuel; Andermatt,Samuel; Holmberg,Nico;
 Schenter,Gregory K.; Hehn,Anna; Bussy,Augustin; Belleflamme,Fabian;
 Tabacchi,Gloria; Gloess,Andreas; Lass,Michael; Bethune,Iain;
 Mundy,Christopher J.; Plessl,Christian; Watkins,Matt;
 VandeVondele,Joost; Krack,Matthias; Hutter,Juerg. 
 The Journal of Chemical Physics, 152 (19), (2020). 
 CP2K: An electronic structure and molecular dynamics software package -
 Quickstep: Efficient and accurate electronic structure calculations.
 https://doi.org/10.1063/5.0007045

 Lehtola, S; Steigemann, C; Oliveira, MJT; Marques, MAL. 
 SoftwareX, 7, 1-5 (2018). 
 Recent developments in libxc - A comprehensive library of functionals
 for density functional theory.
 https://doi.org/10.1016/j.softx.2017.11.002

 Schuett, Ole; Messmer, Peter; Hutter, Juerg; VandeVondele, Joost. 
 Electronic Structure Calculations on Graphics Processing Units, John
 Wiley & Sons, Ltd, 173-190 (2016). 
 GPU-Accelerated Sparse Matrix-Matrix Multiplication for
 Linear Scaling Density Functional Theory.
 https://doi.org/10.1002/9781118670712.ch8

 Borstnik, U; VandeVondele, J; Weber, V; Hutter, J. 
 PARALLEL COMPUTING, 40 (5-6), 47-58 (2014). 
 Sparse matrix multiplication: The distributed block-compressed sparse
 row library.
 https://doi.org/10.1016/j.parco.2014.03.012

 Hutter, J; Iannuzzi, M; Schiffmann, F; VandeVondele, J. 
 WIREs Comput Mol Sci., 4 (1), 15-25 (2014). 
 CP2K: atomistic simulations of condensed matter systems.
 https://doi.org/10.1002/wcms.1159

 Marek, A; Blum, V; Johanni, R; Havu, V; Lang, B; Auckenthaler, T;
 Heinecke, A; Bungartz, H; Lederer, H. 
 Journal of Physics: Condensed Matter, 26 (21), (2014). 
 The ELPA library: scalable parallel eigenvalue solutions for
 electronic structure
 theory and computational science.
 https://doi.org/10.1088/0953-8984/26/21/213201

 Marques, MAL; Oliveira, MJT; Burnus, T. 
 COMPUTER PHYSICS COMMUNICATIONS, 183 (10), 2272-2281 (2012). 
 LIBXC: A library of exchange and correlation functionals for density
 functional theory.
 https://doi.org/10.1016/j.cpc.2012.05.007

 Guidon, M; Hutter, J; VandeVondele, J. 
 JOURNAL OF CHEMICAL THEORY AND COMPUTATION, 6 (8), 2348-2364 (2010). 
 Auxiliary Density Matrix Methods for Hartree-Fock Exchange Calculations.
 https://doi.org/10.1021/ct1002225

 Guidon, M; Hutter, J; VandeVondele, J. 
 JOURNAL OF CHEMICAL THEORY AND COMPUTATION, 5 (11), 3010-3021 (2009). 
 Robust Periodic Hartree-Fock Exchange for Large-Scale Simulations Using
 Gaussian Basis Sets.
 https://doi.org/10.1021/ct900494g

 Guidon, M; Schiffmann, F; Hutter, J; VandeVondele, J. 
 JOURNAL OF CHEMICAL PHYSICS, 128 (21), 214104 (2008). 
 Ab initio molecular dynamics using hybrid density functionals.
 https://doi.org/10.1063/1.2931945

 VandeVondele, J; Hutter, J. 
 JOURNAL OF CHEMICAL PHYSICS, 127 (11), 114105 (2007). 
 Gaussian basis sets for accurate calculations on molecular systems in
 gas and condensed phases.
 https://doi.org/10.1063/1.2770708

 Krack, M. 
 THEORETICAL CHEMISTRY ACCOUNTS, 114 (1-3), 145-152 (2005). 
 Pseudopotentials for H to Kr optimized for gradient-corrected
 exchange-correlation functionals.
 https://doi.org/10.1007/s00214-005-0655-y

 Frigo, M; Johnson, SG. 
 PROCEEDINGS OF THE IEEE, 93 (2), 216-231 (2005). 
 The design and implementation of FFTW3.
 https://doi.org/10.1109/JPROC.2004.840301

 Heyd, J; Scuseria, GE. 
 JOURNAL OF CHEMICAL PHYSICS, 120 (16), 7274-7280 (2004). 
 Assessment and validation of a screened Coulomb hybrid density
 functional.
 https://doi.org/10.1063/1.1668634

 VandeVondele, J; Hutter, J. 
 JOURNAL OF CHEMICAL PHYSICS, 118 (10), 4365-4369 (2003). 
 An efficient orbital transformation method for electronic structure
 calculations.
 https://doi.org/10.1063/1.1543154

 Lippert, G; Hutter, J; Parrinello, M. 
 THEORETICAL CHEMISTRY ACCOUNTS, 103 (2), 124-140 (1999). 
 The Gaussian and augmented-plane-wave density functional method for ab
 initio molecular dynamics simulations.
 https://doi.org/10.1007/s002140050523

 Krack, M; Parrinello, M. 
 PHYSICAL CHEMISTRY CHEMICAL PHYSICS, 2 (10), 2105-2112 (2000). 
 All-electron ab-initio molecular dynamics.
 https://doi.org/10.1039/b001167n

 Hartwigsen, C; Goedecker, S; Hutter, J. 
 PHYSICAL REVIEW B, 58 (7), 3641-3662 (1998). 
 Relativistic separable dual-space Gaussian pseudopotentials from H to Rn.
 https://doi.org/10.1103/PhysRevB.58.3641

 Goedecker, S; Teter, M; Hutter, J. 
 PHYSICAL REVIEW B, 54 (3), 1703-1710 (1996). 
 Separable dual-space Gaussian pseudopotentials.
 https://doi.org/10.1103/PhysRevB.54.1703


 -------------------------------------------------------------------------------
 -                                                                             -
 -                                T I M I N G                                  -
 -                                                                             -
 -------------------------------------------------------------------------------
 SUBROUTINE                       CALLS  ASD         SELF TIME        TOTAL TIME
                                MAXIMUM       AVERAGE  MAXIMUM  AVERAGE  MAXIMUM
 CP2K                                 1  1.0     0.06     0.13 22675.02 22675.02
 qs_energies                          1  2.0     0.00     0.00 22673.74 22673.74
 scf_env_do_scf                       1  3.0     0.00     0.00 22633.29 22633.29
 scf_env_do_scf_inner_loop          153  4.0     0.00     0.02 22293.18 22293.28
 qs_ks_update_qs_env                155  5.0     0.00     0.00 21848.66 21848.70
 rebuild_ks_matrix                  153  6.0     0.00     0.00 21848.48 21848.52
 qs_ks_build_kohn_sham_matrix       153  7.0     0.05     0.13 21848.48 21848.52
 hfx_ks_matrix                      153  8.0     0.01     0.01 17145.86 17145.90
 integrate_four_center              153  9.0     1.02     1.22 17145.59 17145.61
 integrate_four_center_main         153 10.0     0.04     0.05 16827.43 17126.89
 integrate_four_center_bin         9792 11.0 16827.39 17126.85 16827.39 17126.85
 qs_vxc_create                      306  8.0     0.01     0.01  3232.63  3232.67
 pw_transfer                       9001 10.6     0.90     1.00  2747.07  2828.87
 fft_wrap_pw1pw2                   8541 11.6     0.14     0.15  2731.55  2813.54
 fft_wrap_pw1pw2_300               4845 13.1   260.69   270.22  2611.75  2693.71
 xc_rho_set_and_dset_create         306 10.0    31.18    34.52  2338.61  2478.83
 xc_vxc_pw_create                   154  9.0    16.85    19.19  2120.79  2120.81
 fft3d_ps                          8541 13.6  1076.57  1091.71  1979.02  2075.01
 xc_pw_derive                      2760 11.0     0.06     0.07  1781.68  1862.89
 xc_functional_eval               18666 10.1     0.03     0.03  1101.47  1238.14
 calculate_rho_elec                 614  7.5     8.43     8.70  1213.29  1213.53
 xc_exc_calc                        152  9.0     2.04     2.07  1111.83  1111.85
 density_rs2pw                      614  8.5     0.05     0.06   989.03  1028.79
 xc_pw_divergence                   308 10.0     0.02     0.02   799.25   878.04
 qs_rho_update_rho_low              154  5.0     0.00     0.00   729.10   729.16
 xpbe_hole_t_c_lr_lsd_eval         6120 11.1   528.58   590.66   528.58   590.66
 admm_mo_calc_rho_aux               153  8.0     0.00     0.00   564.94   565.19
 x_to_yz                           4073 15.2   417.86   423.85   532.55   540.56
 xwpbe_lsd_eval                    6120 11.1   455.19   517.05   455.19   517.05
 mp_sync                           2641 10.8   302.95   517.03   302.95   517.03
 yz_to_x                           4468 14.1   204.35   211.85   369.61   463.77
 sum_up_and_integrate                77  8.0     8.81     9.12   461.52   461.55
 -------------------------------------------------------------------------------

 The number of warnings for this run is : 4
 
 -------------------------------------------------------------------------------
  **** **** ******  **  PROGRAM ENDED AT                 2025-10-07 23:34:43.991
 ***** ** ***  *** **   PROGRAM RAN ON                                sebnode122
 **    ****   ******    PROGRAM RAN BY                                    luehrs
 ***** **    ** ** **   PROGRAM PROCESS ID                                979523
  **** **  *******  **  PROGRAM STOPPED IN /home/luehrs/PhD/Sodium_batteries/Sod
                                           ium-graphene-functional_groups/XPS_Fu
                                           nctional_groups/C_atom_XPS/Alcohol_zi
                                           g-zag_hydrogenated
