 DBCSR| CPU Multiplication driver                                           BLAS (U)
 DBCSR| Multrec recursion limit                                              512 (U)
 DBCSR| Multiplication stack size                                           1000 (D)
 DBCSR| Maximum elements for images                                    UNLIMITED (U)
 DBCSR| Multiplicative factor virtual images                                   1 (U)
 DBCSR| Use multiplication densification                                       T (D)
 DBCSR| Multiplication size stacks                                             3 (U)
 DBCSR| Use memory pool for CPU allocation                                     F (U)
 DBCSR| Number of 3D layers                                               SINGLE (U)
 DBCSR| Use MPI memory allocation                                              F (U)
 DBCSR| Use RMA algorithm                                                      F (U)
 DBCSR| Use Communication thread                                               T (U)
 DBCSR| Communication thread load                                             87 (D)
 DBCSR| MPI: My process id                                                     0
 DBCSR| MPI: Number of processes                                              16
 DBCSR| OMP: Current number of threads                                         1
 DBCSR| OMP: Max number of threads                                             1
 DBCSR| Split modifier for TAS multiplication algorithm                  1.0E+00 (U)


  **** **** ******  **  PROGRAM STARTED AT               2025-04-15 16:59:04.307
 ***** ** ***  *** **   PROGRAM STARTED ON                            sebnode130
 **    ****   ******    PROGRAM STARTED BY                                luehrs
 ***** **    ** ** **   PROGRAM PROCESS ID                               1329892
  **** **  *******  **  PROGRAM STARTED IN /home/luehrs/PhD/Sodium_batteries/Sod
                                           ium-graphene-curvature/Curved_surface
                                           _concave/Zig-Zag1

 CP2K| version string:                                       CP2K version 2023.1
 CP2K| source code revision number:                                  git:b888bd8
 CP2K| cp2kflags: omp libint fftw3 libxc elpa parallel scalapack spglib         
 CP2K| is freely available from                            https://www.cp2k.org/
 CP2K| Program compiled at                          Tue Jan 10 19:52:03 UTC 2023
 CP2K| Program compiled on                                            x86-ubc-01
 CP2K| Program compiled for                                Linux-x86_64-gfortran
 CP2K| Data directory path                                       /usr/share/cp2k
 CP2K| Input file name                                            input.BSSE.inp

 GLOBAL| Force Environment number                                              1
 GLOBAL| Basis set file name                                      ./BASIS_MOLOPT
 GLOBAL| Potential file name                                    ./GTH_POTENTIALS
 GLOBAL| MM Potential file name                                     MM_POTENTIAL
 GLOBAL| Coordinate file name                           coords_sur_1_relaxed.xyz
 GLOBAL| Method name                                                        CP2K
 GLOBAL| Project name                                       curv_sur_1_BSSE_BLYP
 GLOBAL| Run type                                                           BSSE
 GLOBAL| FFT library                                                       FFTW3
 GLOBAL| Diagonalization library                                            ELPA
 GLOBAL| DGEMM library                                                      BLAS
 GLOBAL| Minimum number of eigenvectors for ELPA usage                        16
 GLOBAL| Orthonormality check for eigenvectors                          DISABLED
 GLOBAL| Matrix multiplication library                                 ScaLAPACK
 GLOBAL| All-to-all communication in single precision                          F
 GLOBAL| FFTs using library dependent lengths                                  F
 GLOBAL| Grid backend                                                       AUTO
 GLOBAL| Global print level                                                  LOW
 GLOBAL| MPI I/O enabled                                                       T
 GLOBAL| Total number of message passing processes                            16
 GLOBAL| Number of threads for this process                                    1
 GLOBAL| This output is from process                                           0
 GLOBAL| Stack size for threads created by OpenMP (OMP_STACKSIZE)        default
 GLOBAL| CPU model name                          AMD EPYC 7513 32-Core Processor

 MEMORY| system memory details [Kb]
 MEMORY|                        rank 0           min           max       average
 MEMORY| MemTotal            131832644     131832644     131832644     131832644
 MEMORY| MemFree             107661636     107661636     107661636     107661636
 MEMORY| Buffers                342912        342912        342912        342912
 MEMORY| Cached               17131076      17131076      17131076      17131076
 MEMORY| Slab                   829700        829700        829700        829700
 MEMORY| SReclaimable           186064        186064        186064        186064
 MEMORY| MemLikelyFree       125321688     125321688     125321688     125321688


 GENERATE|  Preliminary Number of Bonds generated:                             0
 GENERATE|  Achieved consistency in connectivity generation.

 *******************************************************************************
 *******************************************************************************
 **                                                                           **
 **     #####                         ##              ##                      **
 **    ##   ##            ##          ##              ##                      **
 **   ##     ##                       ##            ######                    **
 **   ##     ##  ##   ##  ##   #####  ##  ##   ####   ##    #####    #####    **
 **   ##     ##  ##   ##  ##  ##      ## ##   ##      ##   ##   ##  ##   ##   **
 **   ##  ## ##  ##   ##  ##  ##      ####     ###    ##   ######   ######    **
 **    ##  ###   ##   ##  ##  ##      ## ##      ##   ##   ##       ##        **
 **     #######   #####   ##   #####  ##  ##  ####    ##    #####   ##        **
 **           ##                                                    ##        **
 **                                                                           **
 **                                                ... make the atoms dance   **
 **                                                                           **
 **            Copyright (C) by CP2K developers group (2000-2022)             **
 **                      J. Chem. Phys. 152, 194103 (2020)                    **
 **                                                                           **
 *******************************************************************************


 TOTAL NUMBERS AND MAXIMUM NUMBERS

  Total number of            - Atomic kinds:                                   2
                             - Atoms:                                        225
                             - Shell sets:                                   225
                             - Shells:                                      1125
                             - Primitive Cartesian functions:               1127
                             - Cartesian basis functions:                   3145
                             - Spherical basis functions:                   2921

  Maximum angular momentum of- Orbital basis functions:                        2
                             - Local part of the GTH pseudopotential:          2
                             - Non-local part of the GTH pseudopotential:      1


 SCF PARAMETERS         Density guess:                                    ATOMIC
                        --------------------------------------------------------
                        max_scf:                                             300
                        max_scf_history:                                       0
                        max_diis:                                              4
                        --------------------------------------------------------
                        eps_scf:                                        3.00E-07
                        eps_scf_history:                                0.00E+00
                        eps_diis:                                       1.00E-01
                        eps_eigval:                                     1.00E-05
                        --------------------------------------------------------
                        level_shift [a.u.]:                             0.000000
                        added MOs                                       100    0
                        --------------------------------------------------------
                        Mixing method:                            BROYDEN_MIXING
                                                charge density mixing in g-space
                        --------------------------------------------------------
                        Smear method:                                FERMI_DIRAC
                        Electronic temperature [K]:                        300.0
                        Electronic temperature [a.u.]:                  9.50E-04
                        Accuracy threshold:                             1.00E-10
                        --------------------------------------------------------
                        Outer loop SCF in use 
                        No variables optimised in outer loop
                        eps_scf                                         1.00E-06
                        max_scf                                              300
                        DIIS optimization
                        DIIS buffer length                                     3
                        step_size                                       5.00E-01

 -------------------------------------------------------------------------------
 -                                                                             -
 -  BSSE CALCULATION         FRAGMENT CONF: 10        FRAGMENT SUBCONF: 10     -
 -                           CHARGE =     0           MULTIPLICITY =     0     -
 -                                                                             -
 -                 ATOM INDEX                              ATOM NAME           -
 -                 ----------                              ---------           -
 -                      1                                   C                  -
 -                      2                                   C                  -
 -                      3                                   C                  -
 -                      4                                   C                  -
 -                      5                                   C                  -
 -                      6                                   C                  -
 -                      7                                   C                  -
 -                      8                                   C                  -
 -                      9                                   C                  -
 -                     10                                   C                  -
 -                     11                                   C                  -
 -                     12                                   C                  -
 -                     13                                   C                  -
 -                     14                                   C                  -
 -                     15                                   C                  -
 -                     16                                   C                  -
 -                     17                                   C                  -
 -                     18                                   C                  -
 -                     19                                   C                  -
 -                     20                                   C                  -
 -                     21                                   C                  -
 -                     22                                   C                  -
 -                     23                                   C                  -
 -                     24                                   C                  -
 -                     25                                   C                  -
 -                     26                                   C                  -
 -                     27                                   C                  -
 -                     28                                   C                  -
 -                     29                                   C                  -
 -                     30                                   C                  -
 -                     31                                   C                  -
 -                     32                                   C                  -
 -                     33                                   C                  -
 -                     34                                   C                  -
 -                     35                                   C                  -
 -                     36                                   C                  -
 -                     37                                   C                  -
 -                     38                                   C                  -
 -                     39                                   C                  -
 -                     40                                   C                  -
 -                     41                                   C                  -
 -                     42                                   C                  -
 -                     43                                   C                  -
 -                     44                                   C                  -
 -                     45                                   C                  -
 -                     46                                   C                  -
 -                     47                                   C                  -
 -                     48                                   C                  -
 -                     49                                   C                  -
 -                     50                                   C                  -
 -                     51                                   C                  -
 -                     52                                   C                  -
 -                     53                                   C                  -
 -                     54                                   C                  -
 -                     55                                   C                  -
 -                     56                                   C                  -
 -                     57                                   C                  -
 -                     58                                   C                  -
 -                     59                                   C                  -
 -                     60                                   C                  -
 -                     61                                   C                  -
 -                     62                                   C                  -
 -                     63                                   C                  -
 -                     64                                   C                  -
 -                     65                                   C                  -
 -                     66                                   C                  -
 -                     67                                   C                  -
 -                     68                                   C                  -
 -                     69                                   C                  -
 -                     70                                   C                  -
 -                     71                                   C                  -
 -                     72                                   C                  -
 -                     73                                   C                  -
 -                     74                                   C                  -
 -                     75                                   C                  -
 -                     76                                   C                  -
 -                     77                                   C                  -
 -                     78                                   C                  -
 -                     79                                   C                  -
 -                     80                                   C                  -
 -                     81                                   C                  -
 -                     82                                   C                  -
 -                     83                                   C                  -
 -                     84                                   C                  -
 -                     85                                   C                  -
 -                     86                                   C                  -
 -                     87                                   C                  -
 -                     88                                   C                  -
 -                     89                                   C                  -
 -                     90                                   C                  -
 -                     91                                   C                  -
 -                     92                                   C                  -
 -                     93                                   C                  -
 -                     94                                   C                  -
 -                     95                                   C                  -
 -                     96                                   C                  -
 -                     97                                   C                  -
 -                     98                                   C                  -
 -                     99                                   C                  -
 -                    100                                   C                  -
 -                    101                                   C                  -
 -                    102                                   C                  -
 -                    103                                   C                  -
 -                    104                                   C                  -
 -                    105                                   C                  -
 -                    106                                   C                  -
 -                    107                                   C                  -
 -                    108                                   C                  -
 -                    109                                   C                  -
 -                    110                                   C                  -
 -                    111                                   C                  -
 -                    112                                   C                  -
 -                    113                                   C                  -
 -                    114                                   C                  -
 -                    115                                   C                  -
 -                    116                                   C                  -
 -                    117                                   C                  -
 -                    118                                   C                  -
 -                    119                                   C                  -
 -                    120                                   C                  -
 -                    121                                   C                  -
 -                    122                                   C                  -
 -                    123                                   C                  -
 -                    124                                   C                  -
 -                    125                                   C                  -
 -                    126                                   C                  -
 -                    127                                   C                  -
 -                    128                                   C                  -
 -                    129                                   C                  -
 -                    130                                   C                  -
 -                    131                                   C                  -
 -                    132                                   C                  -
 -                    133                                   C                  -
 -                    134                                   C                  -
 -                    135                                   C                  -
 -                    136                                   C                  -
 -                    137                                   C                  -
 -                    138                                   C                  -
 -                    139                                   C                  -
 -                    140                                   C                  -
 -                    141                                   C                  -
 -                    142                                   C                  -
 -                    143                                   C                  -
 -                    144                                   C                  -
 -                    145                                   C                  -
 -                    146                                   C                  -
 -                    147                                   C                  -
 -                    148                                   C                  -
 -                    149                                   C                  -
 -                    150                                   C                  -
 -                    151                                   C                  -
 -                    152                                   C                  -
 -                    153                                   C                  -
 -                    154                                   C                  -
 -                    155                                   C                  -
 -                    156                                   C                  -
 -                    157                                   C                  -
 -                    158                                   C                  -
 -                    159                                   C                  -
 -                    160                                   C                  -
 -                    161                                   C                  -
 -                    162                                   C                  -
 -                    163                                   C                  -
 -                    164                                   C                  -
 -                    165                                   C                  -
 -                    166                                   C                  -
 -                    167                                   C                  -
 -                    168                                   C                  -
 -                    169                                   C                  -
 -                    170                                   C                  -
 -                    171                                   C                  -
 -                    172                                   C                  -
 -                    173                                   C                  -
 -                    174                                   C                  -
 -                    175                                   C                  -
 -                    176                                   C                  -
 -                    177                                   C                  -
 -                    178                                   C                  -
 -                    179                                   C                  -
 -                    180                                   C                  -
 -                    181                                   C                  -
 -                    182                                   C                  -
 -                    183                                   C                  -
 -                    184                                   C                  -
 -                    185                                   C                  -
 -                    186                                   C                  -
 -                    187                                   C                  -
 -                    188                                   C                  -
 -                    189                                   C                  -
 -                    190                                   C                  -
 -                    191                                   C                  -
 -                    192                                   C                  -
 -                    193                                   C                  -
 -                    194                                   C                  -
 -                    195                                   C                  -
 -                    196                                   C                  -
 -                    197                                   C                  -
 -                    198                                   C                  -
 -                    199                                   C                  -
 -                    200                                   C                  -
 -                    201                                   C                  -
 -                    202                                   C                  -
 -                    203                                   C                  -
 -                    204                                   C                  -
 -                    205                                   C                  -
 -                    206                                   C                  -
 -                    207                                   C                  -
 -                    208                                   C                  -
 -                    209                                   C                  -
 -                    210                                   C                  -
 -                    211                                   C                  -
 -                    212                                   C                  -
 -                    213                                   C                  -
 -                    214                                   C                  -
 -                    215                                   C                  -
 -                    216                                   C                  -
 -                    217                                   C                  -
 -                    218                                   C                  -
 -                    219                                   C                  -
 -                    220                                   C                  -
 -                    221                                   C                  -
 -                    222                                   C                  -
 -                    223                                   C                  -
 -                    224                                   C                  -
 -------------------------------------------------------------------------------

 *******************************************************************************
 *******************************************************************************
 **                                                                           **
 **     #####                         ##              ##                      **
 **    ##   ##            ##          ##              ##                      **
 **   ##     ##                       ##            ######                    **
 **   ##     ##  ##   ##  ##   #####  ##  ##   ####   ##    #####    #####    **
 **   ##     ##  ##   ##  ##  ##      ## ##   ##      ##   ##   ##  ##   ##   **
 **   ##  ## ##  ##   ##  ##  ##      ####     ###    ##   ######   ######    **
 **    ##  ###   ##   ##  ##  ##      ## ##      ##   ##   ##       ##        **
 **     #######   #####   ##   #####  ##  ##  ####    ##    #####   ##        **
 **           ##                                                    ##        **
 **                                                                           **
 **                                                ... make the atoms dance   **
 **                                                                           **
 **            Copyright (C) by CP2K developers group (2000-2022)             **
 **                      J. Chem. Phys. 152, 194103 (2020)                    **
 **                                                                           **
 *******************************************************************************


 TOTAL NUMBERS AND MAXIMUM NUMBERS

  Total number of            - Atomic kinds:                                   1
                             - Atoms:                                        224
                             - Shell sets:                                   224
                             - Shells:                                      1120
                             - Primitive Cartesian functions:               1120
                             - Cartesian basis functions:                   3136
                             - Spherical basis functions:                   2912

  Maximum angular momentum of- Orbital basis functions:                        2
                             - Local part of the GTH pseudopotential:          2
                             - Non-local part of the GTH pseudopotential:      0


 SCF PARAMETERS         Density guess:                                    ATOMIC
                        --------------------------------------------------------
                        max_scf:                                             300
                        max_scf_history:                                       0
                        max_diis:                                              4
                        --------------------------------------------------------
                        eps_scf:                                        3.00E-07
                        eps_scf_history:                                0.00E+00
                        eps_diis:                                       1.00E-01
                        eps_eigval:                                     1.00E-05
                        --------------------------------------------------------
                        level_shift [a.u.]:                             0.000000
                        added MOs                                       100    0
                        --------------------------------------------------------
                        Mixing method:                            BROYDEN_MIXING
                                                charge density mixing in g-space
                        --------------------------------------------------------
                        Smear method:                                FERMI_DIRAC
                        Electronic temperature [K]:                        300.0
                        Electronic temperature [a.u.]:                  9.50E-04
                        Accuracy threshold:                             1.00E-10
                        --------------------------------------------------------
                        Outer loop SCF in use 
                        No variables optimised in outer loop
                        eps_scf                                         1.00E-06
                        max_scf                                              300
                        DIIS optimization
                        DIIS buffer length                                     3
                        step_size                                       5.00E-01

 Number of electrons:                                                        896
 Number of occupied orbitals:                                                448
 Number of molecular orbitals:                                               548

 Number of orbital functions:                                               2912
 Number of independent orbital functions:                                   2912

 Extrapolation method: initial_guess


 SCF WAVEFUNCTION OPTIMIZATION

  Step     Update method      Time    Convergence         Total energy    Change
  ------------------------------------------------------------------------------
     1 NoMix/Diag. 0.10E+00    9.4     0.90361431     -1258.4604062263 -1.26E+03
     2 Broy./Diag. 0.10E+00   12.9     0.30393807     -1201.5232725980  5.69E+01
     3 Broy./Diag. 0.10E+00   13.0     0.01193295     -1211.4294027415 -9.91E+00
     4 Broy./Diag. 0.10E+00   13.2    15.27313606     -1249.3014817945 -3.79E+01
     5 Broy./Diag. 0.10E+00   13.2    15.27339731      -904.1705757777  3.45E+02
     6 Broy./Diag. 0.10E+00   13.3     0.04247053     -1264.1050018980 -3.60E+02
     7 Broy./Diag. 0.10E+00   13.4     0.13898280     -1264.1585997889 -5.36E-02
     8 Broy./Diag. 0.10E+00   13.6     0.13825664     -1264.8123630563 -6.54E-01
     9 Broy./Diag. 0.10E+00   13.8     0.02510576     -1266.2709704286 -1.46E+00
    10 Broy./Diag. 0.10E+00   14.0     0.01576749     -1266.4206666732 -1.50E-01
    11 Broy./Diag. 0.10E+00   14.0     0.03098566     -1266.6069475038 -1.86E-01
    12 Broy./Diag. 0.10E+00   14.0     0.02259702     -1266.8080975090 -2.01E-01
    13 Broy./Diag. 0.10E+00   14.0     0.00525529     -1266.6993647001  1.09E-01
    14 Broy./Diag. 0.10E+00   14.0     0.02492305     -1266.6347048276  6.47E-02
    15 Broy./Diag. 0.10E+00   14.0     0.02703944     -1266.8517325560 -2.17E-01
    16 Broy./Diag. 0.10E+00   14.0     0.02045167     -1267.1566669614 -3.05E-01
    17 Broy./Diag. 0.10E+00   14.0     0.01113703     -1267.3649761804 -2.08E-01
    18 Broy./Diag. 0.10E+00   14.0     0.00888360     -1267.4417314260 -7.68E-02
    19 Broy./Diag. 0.10E+00   14.0     0.01903288     -1267.4306957423  1.10E-02
    20 Broy./Diag. 0.10E+00   14.0     0.03821535     -1267.4634344775 -3.27E-02
    21 Broy./Diag. 0.10E+00   14.1     0.04092552     -1267.4920875699 -2.87E-02
    22 Broy./Diag. 0.10E+00   14.0     0.03150245     -1267.5000604495 -7.97E-03
    23 Broy./Diag. 0.10E+00   14.0     0.00671540     -1267.5024983101 -2.44E-03
    24 Broy./Diag. 0.10E+00   14.0     0.00741509     -1267.4924762014  1.00E-02
    25 Broy./Diag. 0.10E+00   14.0     0.01053897     -1267.4554707523  3.70E-02
    26 Broy./Diag. 0.10E+00   14.0     0.00874638     -1267.4326024219  2.29E-02
    27 Broy./Diag. 0.10E+00   14.0     0.00843972     -1267.4116049019  2.10E-02
    28 Broy./Diag. 0.10E+00   14.1     0.01155290     -1267.4065299459  5.07E-03
    29 Broy./Diag. 0.10E+00   14.1     0.01884307     -1267.4209042946 -1.44E-02
    30 Broy./Diag. 0.10E+00   14.0     0.01015263     -1267.4184787433  2.43E-03
    31 Broy./Diag. 0.10E+00   14.0     0.01030534     -1267.4287514429 -1.03E-02
    32 Broy./Diag. 0.10E+00   14.0     0.00794351     -1267.4308149640 -2.06E-03
    33 Broy./Diag. 0.10E+00   14.0     0.00577818     -1267.4423215493 -1.15E-02
    34 Broy./Diag. 0.10E+00   14.0     0.00345500     -1267.4599284412 -1.76E-02
    35 Broy./Diag. 0.10E+00   14.0     0.00312976     -1267.4714111712 -1.15E-02
    36 Broy./Diag. 0.10E+00   14.0     0.00486950     -1267.4836248983 -1.22E-02
    37 Broy./Diag. 0.10E+00   14.0     0.00584994     -1267.4943467628 -1.07E-02
    38 Broy./Diag. 0.10E+00   14.0     0.00150433     -1267.5129406919 -1.86E-02
    39 Broy./Diag. 0.10E+00   14.0     0.00620053     -1267.5453191271 -3.24E-02
    40 Broy./Diag. 0.10E+00   14.0     0.00354361     -1267.5658864872 -2.06E-02
    41 Broy./Diag. 0.10E+00   14.0     0.00567404     -1267.5749526871 -9.07E-03
    42 Broy./Diag. 0.10E+00   14.0     0.00462028     -1267.6019532740 -2.70E-02
    43 Broy./Diag. 0.10E+00   14.0     0.00270491     -1267.6256402104 -2.37E-02
    44 Broy./Diag. 0.10E+00   14.0     0.00200688     -1267.6419103215 -1.63E-02
    45 Broy./Diag. 0.10E+00   14.1     0.00137983     -1267.6516831629 -9.77E-03
    46 Broy./Diag. 0.10E+00   14.3     0.00209912     -1267.6569805201 -5.30E-03
    47 Broy./Diag. 0.10E+00   14.3     0.00062006     -1267.6639937087 -7.01E-03
    48 Broy./Diag. 0.10E+00   14.3     0.00136844     -1267.6625223407  1.47E-03
    49 Broy./Diag. 0.10E+00   14.3     0.00092975     -1267.6608998898  1.62E-03
    50 Broy./Diag. 0.10E+00   14.3     0.00064229     -1267.6615560960 -6.56E-04
    51 Broy./Diag. 0.10E+00   14.3     0.00071610     -1267.6652787723 -3.72E-03
    52 Broy./Diag. 0.10E+00   14.3     0.00064178     -1267.6764583079 -1.12E-02
    53 Broy./Diag. 0.10E+00   14.3     0.00046804     -1267.6834716251 -7.01E-03
    54 Broy./Diag. 0.10E+00   14.3     0.00046982     -1267.6882313331 -4.76E-03
    55 Broy./Diag. 0.10E+00   14.3     0.00040428     -1267.6912474055 -3.02E-03
    56 Broy./Diag. 0.10E+00   14.3     0.00029806     -1267.6927365853 -1.49E-03
    57 Broy./Diag. 0.10E+00   14.3     0.00036405     -1267.6921627121  5.74E-04
    58 Broy./Diag. 0.10E+00   14.3     0.00033134     -1267.6880966633  4.07E-03
    59 Broy./Diag. 0.10E+00   14.3     0.00037605     -1267.6828890771  5.21E-03
    60 Broy./Diag. 0.10E+00   14.3     0.00014773     -1267.6815323935  1.36E-03
    61 Broy./Diag. 0.10E+00   14.3     0.00011169     -1267.6806027983  9.30E-04
    62 Broy./Diag. 0.10E+00   14.3     0.00010121     -1267.6803664786  2.36E-04
    63 Broy./Diag. 0.10E+00   14.3     0.00005614     -1267.6797838641  5.83E-04
    64 Broy./Diag. 0.10E+00   14.3     0.00005367     -1267.6795332748  2.51E-04
    65 Broy./Diag. 0.10E+00   14.3     0.00006821     -1267.6799998462 -4.67E-04
    66 Broy./Diag. 0.10E+00   14.3     0.00008753     -1267.6807350507 -7.35E-04
    67 Broy./Diag. 0.10E+00   14.2     0.00007817     -1267.6818785313 -1.14E-03
    68 Broy./Diag. 0.10E+00   14.2     0.00004269     -1267.6829138357 -1.04E-03
    69 Broy./Diag. 0.10E+00   14.3     0.00005133     -1267.6835340021 -6.20E-04
    70 Broy./Diag. 0.10E+00   14.3     0.00005318     -1267.6842848155 -7.51E-04
    71 Broy./Diag. 0.10E+00   14.3     0.00003261     -1267.6847704735 -4.86E-04
    72 Broy./Diag. 0.10E+00   14.3     0.00002638     -1267.6849788077 -2.08E-04
    73 Broy./Diag. 0.10E+00   14.2     0.00002664     -1267.6850204294 -4.16E-05
    74 Broy./Diag. 0.10E+00   14.2     0.00001205     -1267.6850193727  1.06E-06
    75 Broy./Diag. 0.10E+00   14.3     0.00001761     -1267.6850077775  1.16E-05
    76 Broy./Diag. 0.10E+00   14.3     0.00002262     -1267.6850264834 -1.87E-05
    77 Broy./Diag. 0.10E+00   14.3     0.00001621     -1267.6851498026 -1.23E-04
    78 Broy./Diag. 0.10E+00   14.3     0.00001160     -1267.6851191365  3.07E-05
    79 Broy./Diag. 0.10E+00   14.2     0.00001506     -1267.6850844167  3.47E-05
    80 Broy./Diag. 0.10E+00   14.3     0.00001815     -1267.6850259933  5.84E-05
    81 Broy./Diag. 0.10E+00   14.3     0.00001049     -1267.6850310885 -5.10E-06
    82 Broy./Diag. 0.10E+00   14.3     0.00000692     -1267.6850797970 -4.87E-05
    83 Broy./Diag. 0.10E+00   14.3     0.00000737     -1267.6851736189 -9.38E-05
    84 Broy./Diag. 0.10E+00   14.3     0.00000482     -1267.6852758805 -1.02E-04
    85 Broy./Diag. 0.10E+00   14.2     0.00000469     -1267.6853161990 -4.03E-05
    86 Broy./Diag. 0.10E+00   14.1     0.00000871     -1267.6853132599  2.94E-06
    87 Broy./Diag. 0.10E+00   14.3     0.00000704     -1267.6852925944  2.07E-05
    88 Broy./Diag. 0.10E+00   14.3     0.00000707     -1267.6852795447  1.30E-05
    89 Broy./Diag. 0.10E+00   14.3     0.00000722     -1267.6852945017 -1.50E-05
    90 Broy./Diag. 0.10E+00   14.3     0.00000371     -1267.6853193529 -2.49E-05
    91 Broy./Diag. 0.10E+00   14.2     0.00000397     -1267.6853305453 -1.12E-05
    92 Broy./Diag. 0.10E+00   14.2     0.00000419     -1267.6853158467  1.47E-05
    93 Broy./Diag. 0.10E+00   14.3     0.00000323     -1267.6852958911  2.00E-05
    94 Broy./Diag. 0.10E+00   14.3     0.00000314     -1267.6852833428  1.25E-05
    95 Broy./Diag. 0.10E+00   14.3     0.00000386     -1267.6852778335  5.51E-06
    96 Broy./Diag. 0.10E+00   14.3     0.00000599     -1267.6852784381 -6.05E-07
    97 Broy./Diag. 0.10E+00   14.3     0.00000248     -1267.6852873065 -8.87E-06
    98 Broy./Diag. 0.10E+00   14.7     0.00000264     -1267.6852987800 -1.15E-05
    99 Broy./Diag. 0.10E+00   14.3     0.00000298     -1267.6853077766 -9.00E-06
   100 Broy./Diag. 0.10E+00   14.3     0.00000201     -1267.6853154758 -7.70E-06
   101 Broy./Diag. 0.10E+00   14.3     0.00000177     -1267.6853274159 -1.19E-05
   102 Broy./Diag. 0.10E+00   14.3     0.00000230     -1267.6853425541 -1.51E-05
   103 Broy./Diag. 0.10E+00   14.3     0.00000133     -1267.6853505982 -8.04E-06
   104 Broy./Diag. 0.10E+00   14.3     0.00000140     -1267.6853559418 -5.34E-06
   105 Broy./Diag. 0.10E+00   14.3     0.00000087     -1267.6853584493 -2.51E-06
   106 Broy./Diag. 0.10E+00   14.3     0.00000086     -1267.6853620739 -3.62E-06
   107 Broy./Diag. 0.10E+00   14.3     0.00000082     -1267.6853675318 -5.46E-06
   108 Broy./Diag. 0.10E+00   14.3     0.00000066     -1267.6853719789 -4.45E-06
   109 Broy./Diag. 0.10E+00   14.3     0.00000069     -1267.6853771405 -5.16E-06
   110 Broy./Diag. 0.10E+00   14.3     0.00000054     -1267.6853821303 -4.99E-06
   111 Broy./Diag. 0.10E+00   14.3     0.00000032     -1267.6853882181 -6.09E-06
   112 Broy./Diag. 0.10E+00   14.3     0.00000031     -1267.6853923604 -4.14E-06
   113 Broy./Diag. 0.10E+00   14.3     0.00000056     -1267.6853950884 -2.73E-06
   114 Broy./Diag. 0.10E+00   14.3     0.00000050     -1267.6853968317 -1.74E-06
   115 Broy./Diag. 0.10E+00   14.3     0.00000047     -1267.6853994053 -2.57E-06
   116 Broy./Diag. 0.10E+00   14.2     0.00000048     -1267.6854021093 -2.70E-06
   117 Broy./Diag. 0.10E+00   14.3     0.00000015     -1267.6854032740 -1.16E-06

  *** SCF run converged in   117 steps ***


  Electronic density on regular grids:       -896.0000000000        0.0000000000
  Core density on regular grids:              895.9999999992       -0.0000000008
  Total charge density on r-space grids:       -0.0000000008
  Total charge density g-space grids:          -0.0000000008

  Overlap energy of the core charge distribution:               0.00005425450152
  Self energy of the core charge distribution:              -2990.62154893316665
  Core Hamiltonian energy:                                    944.87116694489532
  Hartree energy:                                            1163.68824209009199
  Exchange-correlation energy:                               -385.13274186485773
  Dispersion energy:                                           -0.48344866945712
  Electronic entropic energy:                                  -0.00712709511182
  Fermi energy:                                                -0.13743204621963

  Total energy:                                             -1267.68540327398500

  outer SCF iter =    1 RMS gradient =   0.15E-06 energy =      -1267.6854032740
  outer SCF loop converged in   1 iterations or  117 steps


 *** WARNING in qs_loc_utils.F:1500 :: User requested the calculation of ***
 *** the localized wavefunction but the section LOCALIZE was not         ***
 *** specified. Localization will not be performed!                      ***


 -------------------------------------------------------------------------------
 -                                                                             -
 -  BSSE CALCULATION         FRAGMENT CONF: 01        FRAGMENT SUBCONF: 01     -
 -                           CHARGE =     0           MULTIPLICITY =     0     -
 -                                                                             -
 -                 ATOM INDEX                              ATOM NAME           -
 -                 ----------                              ---------           -
 -                    225                                   Na                 -
 -------------------------------------------------------------------------------

 *******************************************************************************
 *******************************************************************************
 **                                                                           **
 **     #####                         ##              ##                      **
 **    ##   ##            ##          ##              ##                      **
 **   ##     ##                       ##            ######                    **
 **   ##     ##  ##   ##  ##   #####  ##  ##   ####   ##    #####    #####    **
 **   ##     ##  ##   ##  ##  ##      ## ##   ##      ##   ##   ##  ##   ##   **
 **   ##  ## ##  ##   ##  ##  ##      ####     ###    ##   ######   ######    **
 **    ##  ###   ##   ##  ##  ##      ## ##      ##   ##   ##       ##        **
 **     #######   #####   ##   #####  ##  ##  ####    ##    #####   ##        **
 **           ##                                                    ##        **
 **                                                                           **
 **                                                ... make the atoms dance   **
 **                                                                           **
 **            Copyright (C) by CP2K developers group (2000-2022)             **
 **                      J. Chem. Phys. 152, 194103 (2020)                    **
 **                                                                           **
 *******************************************************************************

 *** WARNING in qs_environment.F:1486 :: More added MOs requested than     ***
 *** available. The full set of unoccupied MOs will be used. Use           ***
 *** 'ADDED_MOS -1' to always use all available MOs and to get rid of this ***
 *** warning.                                                              ***



 TOTAL NUMBERS AND MAXIMUM NUMBERS

  Total number of            - Atomic kinds:                                   1
                             - Atoms:                                          1
                             - Shell sets:                                     1
                             - Shells:                                         5
                             - Primitive Cartesian functions:                  7
                             - Cartesian basis functions:                      9
                             - Spherical basis functions:                      9

  Maximum angular momentum of- Orbital basis functions:                        1
                             - Local part of the GTH pseudopotential:          2
                             - Non-local part of the GTH pseudopotential:      1


 SCF PARAMETERS         Density guess:                                    ATOMIC
                        --------------------------------------------------------
                        max_scf:                                             300
                        max_scf_history:                                       0
                        max_diis:                                              4
                        --------------------------------------------------------
                        eps_scf:                                        3.00E-07
                        eps_scf_history:                                0.00E+00
                        eps_diis:                                       1.00E-01
                        eps_eigval:                                     1.00E-05
                        --------------------------------------------------------
                        level_shift [a.u.]:                             0.000000
                        added MOs                                         4    0
                        --------------------------------------------------------
                        Mixing method:                            BROYDEN_MIXING
                                                charge density mixing in g-space
                        --------------------------------------------------------
                        Smear method:                                FERMI_DIRAC
                        Electronic temperature [K]:                        300.0
                        Electronic temperature [a.u.]:                  9.50E-04
                        Accuracy threshold:                             1.00E-10
                        --------------------------------------------------------
                        Outer loop SCF in use 
                        No variables optimised in outer loop
                        eps_scf                                         1.00E-06
                        max_scf                                              300
                        DIIS optimization
                        DIIS buffer length                                     3
                        step_size                                       5.00E-01

 Number of electrons:                                                          9
 Number of occupied orbitals:                                                  5
 Number of molecular orbitals:                                                 9

 Number of orbital functions:                                                  9
 Number of independent orbital functions:                                      9

 Extrapolation method: initial_guess


 SCF WAVEFUNCTION OPTIMIZATION

  Step     Update method      Time    Convergence         Total energy    Change
  ------------------------------------------------------------------------------
     1 NoMix/Diag. 0.10E+00    1.8     0.00859177       -47.1473799877 -4.71E+01
     2 Broy./Diag. 0.10E+00    3.4     0.00007014       -47.1168056993  3.06E-02
     3 Broy./Diag. 0.10E+00    3.6     0.00070609       -47.1439220277 -2.71E-02
     4 Broy./Diag. 0.10E+00    3.7     0.00001032       -47.1492971403 -5.38E-03
     5 Broy./Diag. 0.10E+00    3.7     0.00004536       -47.1498181887 -5.21E-04
     6 Broy./Diag. 0.10E+00    3.8     0.00000155       -47.1501443674 -3.26E-04
     7 Broy./Diag. 0.10E+00    3.9     0.00004426       -47.1498137397  3.31E-04
     8 Broy./Diag. 0.10E+00    4.1     0.00000685       -47.1495867723  2.27E-04
     9 Broy./Diag. 0.10E+00    4.3     0.00007026       -47.1492462484  3.41E-04
    10 Broy./Diag. 0.10E+00    4.5     0.00000413       -47.1490275497  2.19E-04
    11 Broy./Diag. 0.10E+00    4.6     0.00002765       -47.1488978626  1.30E-04
    12 Broy./Diag. 0.10E+00    4.5     0.00000166       -47.1488456195  5.22E-05
    13 Broy./Diag. 0.10E+00    4.4     0.00000805       -47.1488718841 -2.63E-05
    14 Broy./Diag. 0.10E+00    4.5     0.00000291       -47.1488766434 -4.76E-06
    15 Broy./Diag. 0.10E+00    4.6     0.00000198       -47.1488404904  3.62E-05
    16 Broy./Diag. 0.10E+00    4.5     0.00000065       -47.1488269007  1.36E-05
    17 Broy./Diag. 0.10E+00    4.5     0.00000072       -47.1488406770 -1.38E-05
    18 Broy./Diag. 0.10E+00    4.5     0.00000051       -47.1488582893 -1.76E-05
    19 Broy./Diag. 0.10E+00    4.4     0.00000029       -47.1488581912  9.81E-08

  *** SCF run converged in    19 steps ***


  Electronic density on regular grids:         -9.0003206191       -0.0003206191
  Core density on regular grids:                9.0000000000       -0.0000000000
  Total charge density on r-space grids:       -0.0003206191
  Total charge density g-space grids:          -0.0003206191

  Overlap energy of the core charge distribution:               0.00000000000000
  Self energy of the core charge distribution:                -97.66279648848419
  Core Hamiltonian energy:                                     29.97867155119350
  Hartree energy:                                              27.57261316652641
  Exchange-correlation energy:                                 -7.03602868996984
  Dispersion energy:                                           -0.00000068898532
  Electronic entropic energy:                                  -0.00131704147593
  Fermi energy:                                                -0.08972658491049

  Total energy:                                               -47.14885819119537

  outer SCF iter =    1 RMS gradient =   0.29E-06 energy =        -47.1488581912
  outer SCF loop converged in   1 iterations or   19 steps


 *** WARNING in qs_loc_utils.F:1500 :: User requested the calculation of ***
 *** the localized wavefunction but the section LOCALIZE was not         ***
 *** specified. Localization will not be performed!                      ***


 -------------------------------------------------------------------------------
 -                                                                             -
 -  BSSE CALCULATION         FRAGMENT CONF: 11        FRAGMENT SUBCONF: 10     -
 -                           CHARGE =     0           MULTIPLICITY =     0     -
 -                                                                             -
 -                 ATOM INDEX                              ATOM NAME           -
 -                 ----------                              ---------           -
 -                      1                                   C                  -
 -                      2                                   C                  -
 -                      3                                   C                  -
 -                      4                                   C                  -
 -                      5                                   C                  -
 -                      6                                   C                  -
 -                      7                                   C                  -
 -                      8                                   C                  -
 -                      9                                   C                  -
 -                     10                                   C                  -
 -                     11                                   C                  -
 -                     12                                   C                  -
 -                     13                                   C                  -
 -                     14                                   C                  -
 -                     15                                   C                  -
 -                     16                                   C                  -
 -                     17                                   C                  -
 -                     18                                   C                  -
 -                     19                                   C                  -
 -                     20                                   C                  -
 -                     21                                   C                  -
 -                     22                                   C                  -
 -                     23                                   C                  -
 -                     24                                   C                  -
 -                     25                                   C                  -
 -                     26                                   C                  -
 -                     27                                   C                  -
 -                     28                                   C                  -
 -                     29                                   C                  -
 -                     30                                   C                  -
 -                     31                                   C                  -
 -                     32                                   C                  -
 -                     33                                   C                  -
 -                     34                                   C                  -
 -                     35                                   C                  -
 -                     36                                   C                  -
 -                     37                                   C                  -
 -                     38                                   C                  -
 -                     39                                   C                  -
 -                     40                                   C                  -
 -                     41                                   C                  -
 -                     42                                   C                  -
 -                     43                                   C                  -
 -                     44                                   C                  -
 -                     45                                   C                  -
 -                     46                                   C                  -
 -                     47                                   C                  -
 -                     48                                   C                  -
 -                     49                                   C                  -
 -                     50                                   C                  -
 -                     51                                   C                  -
 -                     52                                   C                  -
 -                     53                                   C                  -
 -                     54                                   C                  -
 -                     55                                   C                  -
 -                     56                                   C                  -
 -                     57                                   C                  -
 -                     58                                   C                  -
 -                     59                                   C                  -
 -                     60                                   C                  -
 -                     61                                   C                  -
 -                     62                                   C                  -
 -                     63                                   C                  -
 -                     64                                   C                  -
 -                     65                                   C                  -
 -                     66                                   C                  -
 -                     67                                   C                  -
 -                     68                                   C                  -
 -                     69                                   C                  -
 -                     70                                   C                  -
 -                     71                                   C                  -
 -                     72                                   C                  -
 -                     73                                   C                  -
 -                     74                                   C                  -
 -                     75                                   C                  -
 -                     76                                   C                  -
 -                     77                                   C                  -
 -                     78                                   C                  -
 -                     79                                   C                  -
 -                     80                                   C                  -
 -                     81                                   C                  -
 -                     82                                   C                  -
 -                     83                                   C                  -
 -                     84                                   C                  -
 -                     85                                   C                  -
 -                     86                                   C                  -
 -                     87                                   C                  -
 -                     88                                   C                  -
 -                     89                                   C                  -
 -                     90                                   C                  -
 -                     91                                   C                  -
 -                     92                                   C                  -
 -                     93                                   C                  -
 -                     94                                   C                  -
 -                     95                                   C                  -
 -                     96                                   C                  -
 -                     97                                   C                  -
 -                     98                                   C                  -
 -                     99                                   C                  -
 -                    100                                   C                  -
 -                    101                                   C                  -
 -                    102                                   C                  -
 -                    103                                   C                  -
 -                    104                                   C                  -
 -                    105                                   C                  -
 -                    106                                   C                  -
 -                    107                                   C                  -
 -                    108                                   C                  -
 -                    109                                   C                  -
 -                    110                                   C                  -
 -                    111                                   C                  -
 -                    112                                   C                  -
 -                    113                                   C                  -
 -                    114                                   C                  -
 -                    115                                   C                  -
 -                    116                                   C                  -
 -                    117                                   C                  -
 -                    118                                   C                  -
 -                    119                                   C                  -
 -                    120                                   C                  -
 -                    121                                   C                  -
 -                    122                                   C                  -
 -                    123                                   C                  -
 -                    124                                   C                  -
 -                    125                                   C                  -
 -                    126                                   C                  -
 -                    127                                   C                  -
 -                    128                                   C                  -
 -                    129                                   C                  -
 -                    130                                   C                  -
 -                    131                                   C                  -
 -                    132                                   C                  -
 -                    133                                   C                  -
 -                    134                                   C                  -
 -                    135                                   C                  -
 -                    136                                   C                  -
 -                    137                                   C                  -
 -                    138                                   C                  -
 -                    139                                   C                  -
 -                    140                                   C                  -
 -                    141                                   C                  -
 -                    142                                   C                  -
 -                    143                                   C                  -
 -                    144                                   C                  -
 -                    145                                   C                  -
 -                    146                                   C                  -
 -                    147                                   C                  -
 -                    148                                   C                  -
 -                    149                                   C                  -
 -                    150                                   C                  -
 -                    151                                   C                  -
 -                    152                                   C                  -
 -                    153                                   C                  -
 -                    154                                   C                  -
 -                    155                                   C                  -
 -                    156                                   C                  -
 -                    157                                   C                  -
 -                    158                                   C                  -
 -                    159                                   C                  -
 -                    160                                   C                  -
 -                    161                                   C                  -
 -                    162                                   C                  -
 -                    163                                   C                  -
 -                    164                                   C                  -
 -                    165                                   C                  -
 -                    166                                   C                  -
 -                    167                                   C                  -
 -                    168                                   C                  -
 -                    169                                   C                  -
 -                    170                                   C                  -
 -                    171                                   C                  -
 -                    172                                   C                  -
 -                    173                                   C                  -
 -                    174                                   C                  -
 -                    175                                   C                  -
 -                    176                                   C                  -
 -                    177                                   C                  -
 -                    178                                   C                  -
 -                    179                                   C                  -
 -                    180                                   C                  -
 -                    181                                   C                  -
 -                    182                                   C                  -
 -                    183                                   C                  -
 -                    184                                   C                  -
 -                    185                                   C                  -
 -                    186                                   C                  -
 -                    187                                   C                  -
 -                    188                                   C                  -
 -                    189                                   C                  -
 -                    190                                   C                  -
 -                    191                                   C                  -
 -                    192                                   C                  -
 -                    193                                   C                  -
 -                    194                                   C                  -
 -                    195                                   C                  -
 -                    196                                   C                  -
 -                    197                                   C                  -
 -                    198                                   C                  -
 -                    199                                   C                  -
 -                    200                                   C                  -
 -                    201                                   C                  -
 -                    202                                   C                  -
 -                    203                                   C                  -
 -                    204                                   C                  -
 -                    205                                   C                  -
 -                    206                                   C                  -
 -                    207                                   C                  -
 -                    208                                   C                  -
 -                    209                                   C                  -
 -                    210                                   C                  -
 -                    211                                   C                  -
 -                    212                                   C                  -
 -                    213                                   C                  -
 -                    214                                   C                  -
 -                    215                                   C                  -
 -                    216                                   C                  -
 -                    217                                   C                  -
 -                    218                                   C                  -
 -                    219                                   C                  -
 -                    220                                   C                  -
 -                    221                                   C                  -
 -                    222                                   C                  -
 -                    223                                   C                  -
 -                    224                                   C                  -
 -                    225                                   Na_ghost           -
 -------------------------------------------------------------------------------

 *******************************************************************************
 *******************************************************************************
 **                                                                           **
 **     #####                         ##              ##                      **
 **    ##   ##            ##          ##              ##                      **
 **   ##     ##                       ##            ######                    **
 **   ##     ##  ##   ##  ##   #####  ##  ##   ####   ##    #####    #####    **
 **   ##     ##  ##   ##  ##  ##      ## ##   ##      ##   ##   ##  ##   ##   **
 **   ##  ## ##  ##   ##  ##  ##      ####     ###    ##   ######   ######    **
 **    ##  ###   ##   ##  ##  ##      ## ##      ##   ##   ##       ##        **
 **     #######   #####   ##   #####  ##  ##  ####    ##    #####   ##        **
 **           ##                                                    ##        **
 **                                                                           **
 **                                                ... make the atoms dance   **
 **                                                                           **
 **            Copyright (C) by CP2K developers group (2000-2022)             **
 **                      J. Chem. Phys. 152, 194103 (2020)                    **
 **                                                                           **
 *******************************************************************************


 TOTAL NUMBERS AND MAXIMUM NUMBERS

  Total number of            - Atomic kinds:                                   2
                             - Atoms:                                        225
                             - Shell sets:                                   225
                             - Shells:                                      1125
                             - Primitive Cartesian functions:               1127
                             - Cartesian basis functions:                   3145
                             - Spherical basis functions:                   2921

  Maximum angular momentum of- Orbital basis functions:                        2
                             - Local part of the GTH pseudopotential:          2
                             - Non-local part of the GTH pseudopotential:      0


 SCF PARAMETERS         Density guess:                                    ATOMIC
                        --------------------------------------------------------
                        max_scf:                                             300
                        max_scf_history:                                       0
                        max_diis:                                              4
                        --------------------------------------------------------
                        eps_scf:                                        3.00E-07
                        eps_scf_history:                                0.00E+00
                        eps_diis:                                       1.00E-01
                        eps_eigval:                                     1.00E-05
                        --------------------------------------------------------
                        level_shift [a.u.]:                             0.000000
                        added MOs                                       100    0
                        --------------------------------------------------------
                        Mixing method:                            BROYDEN_MIXING
                                                charge density mixing in g-space
                        --------------------------------------------------------
                        Smear method:                                FERMI_DIRAC
                        Electronic temperature [K]:                        300.0
                        Electronic temperature [a.u.]:                  9.50E-04
                        Accuracy threshold:                             1.00E-10
                        --------------------------------------------------------
                        Outer loop SCF in use 
                        No variables optimised in outer loop
                        eps_scf                                         1.00E-06
                        max_scf                                              300
                        DIIS optimization
                        DIIS buffer length                                     3
                        step_size                                       5.00E-01

 Number of electrons:                                                        896
 Number of occupied orbitals:                                                448
 Number of molecular orbitals:                                               548

 Number of orbital functions:                                               2921
 Number of independent orbital functions:                                   2921

 Extrapolation method: initial_guess


 SCF WAVEFUNCTION OPTIMIZATION

  Step     Update method      Time    Convergence         Total energy    Change
  ------------------------------------------------------------------------------
     1 NoMix/Diag. 0.10E+00    9.5     0.90361447     -1258.4604062263 -1.26E+03
     2 Broy./Diag. 0.10E+00   13.2     0.30622837     -1201.5222681844  5.69E+01
     3 Broy./Diag. 0.10E+00   13.4     0.02754611     -1211.3361242153 -9.81E+00
     4 Broy./Diag. 0.10E+00   13.4    15.14608816     -1249.1549981037 -3.78E+01
     5 Broy./Diag. 0.10E+00   13.5    15.14637717      -910.2012582150  3.39E+02
     6 Broy./Diag. 0.10E+00   13.6     0.09325738     -1264.1062047883 -3.54E+02
     7 Broy./Diag. 0.10E+00   13.7     0.45663095     -1264.1964130337 -9.02E-02
     8 Broy./Diag. 0.10E+00   13.9     0.44330232     -1260.0295035908  4.17E+00
     9 Broy./Diag. 0.10E+00   14.1     0.09955471     -1264.6005254163 -4.57E+00
    10 Broy./Diag. 0.10E+00   14.3     0.05018270     -1265.5409665703 -9.40E-01
    11 Broy./Diag. 0.10E+00   14.3     0.03942849     -1266.2524704078 -7.12E-01
    12 Broy./Diag. 0.10E+00   14.3     0.03965105     -1266.5312822683 -2.79E-01
    13 Broy./Diag. 0.10E+00   14.3     0.05245589     -1266.4814177233  4.99E-02
    14 Broy./Diag. 0.10E+00   14.3     0.07107109     -1266.3881317873  9.33E-02
    15 Broy./Diag. 0.10E+00   14.3     0.10058414     -1266.4860881689 -9.80E-02
    16 Broy./Diag. 0.10E+00   14.3     0.01913653     -1266.4727943009  1.33E-02
[...]
  Core density on regular grids:              904.9999999992       -0.0000000008
  Total charge density on r-space grids:       -0.0003223255
  Total charge density g-space grids:          -0.0003223255

  Overlap energy of the core charge distribution:               0.00005425450152
  Self energy of the core charge distribution:              -3088.28434542165087
  Core Hamiltonian energy:                                    975.23994318824282
  Hartree energy:                                            1191.06611500306872
  Exchange-correlation energy:                               -392.39672391241987
  Dispersion energy:                                           -0.49173166753859
  Electronic entropic energy:                                  -0.00811465662550
  Fermi energy:                                                -0.13101998039315

  Total energy:                                             -1314.87480321355883

  outer SCF iter =    1 RMS gradient =   0.26E-06 energy =      -1314.8748032136
  outer SCF loop converged in   1 iterations or  155 steps


 *** WARNING in qs_loc_utils.F:1500 :: User requested the calculation of ***
 *** the localized wavefunction but the section LOCALIZE was not         ***
 *** specified. Localization will not be performed!                      ***


 -------------------------------------------------------------------------------
 -                                                                             -
 -                                 BSSE RESULTS                                -
 -                                                                             -
 -                 CP-corrected Total energy:    -1314.873085                  -
 -                                                                             -
 -                       1-body contribution:    -1267.685403                  -
 -                       1-body contribution:      -47.148858                  -
 -                                                                             -
 -                       2-body contribution:       -0.038823                  -
 -                 BSSE-free interaction energy:       -0.038823               -
 -------------------------------------------------------------------------------

 -------------------------------------------------------------------------------
 -                                                                             -
 -                                DBCSR STATISTICS                             -
 -                                                                             -
 -------------------------------------------------------------------------------
 COUNTER                                    TOTAL       BLAS       SMM       ACC
 flops     9 x     9 x     9                88938     100.0%      0.0%      0.0%
 flops     9 x     9 x    32               653184     100.0%      0.0%      0.0%
 flops     9 x     9 x   132              2416392     100.0%      0.0%      0.0%
 flops     9 x     9 x   137              3440070     100.0%      0.0%      0.0%
 flops     9 x    13 x     9              5484024     100.0%      0.0%      0.0%
 flops    13 x     9 x     9              5749380     100.0%      0.0%      0.0%
 flops     9 x     9 x   160              6946560     100.0%      0.0%      0.0%
 flops     9 x     9 x   128             11114496     100.0%      0.0%      0.0%
 flops     9 x    13 x    32             58496256     100.0%      0.0%      0.0%
 flops    13 x     9 x    32             61326720     100.0%      0.0%      0.0%
 flops     9 x    13 x   132            216401328     100.0%      0.0%      0.0%
 flops    13 x     9 x   132            226872360     100.0%      0.0%      0.0%
 flops     9 x    13 x   137            308077380     100.0%      0.0%      0.0%
 flops    13 x     9 x   137            322984350     100.0%      0.0%      0.0%
 flops     9 x    13 x   160            622103040     100.0%      0.0%      0.0%
 flops    13 x     9 x   160            652204800     100.0%      0.0%      0.0%
 flops     9 x    13 x   128            995364864     100.0%      0.0%      0.0%
 flops    13 x     9 x   128           1043527680     100.0%      0.0%      0.0%
 flops    13 x    13 x     9           1844912160     100.0%      0.0%      0.0%
 flops    13 x    13 x    32          19679063040     100.0%      0.0%      0.0%
 flops    13 x    13 x   137         103642089200     100.0%      0.0%      0.0%
 flops    13 x    13 x   132         148178659200     100.0%      0.0%      0.0%
 flops    13 x    13 x   160         300652352000     100.0%      0.0%      0.0%
 flops    13 x    13 x   128         481043763200     100.0%      0.0%      0.0%
 flops inhomo. stacks                           0       0.0%      0.0%      0.0%
 flops total                         1.059584E+12     100.0%      0.0%      0.0%
 flops max/rank                     72.287898E+09     100.0%      0.0%      0.0%
 matmuls inhomo. stacks                         0       0.0%      0.0%      0.0%
 matmuls total                           24822259     100.0%      0.0%      0.0%
 number of processed stacks                 37267     100.0%      0.0%      0.0%
 average stack size                                   666.1       0.0       0.0
 marketing flops                     3.018301E+12
 -------------------------------------------------------------------------------
 # multiplications                            446
 max memory usage/rank               2.051588E+09
 # max total images/rank                        1
 # max 3D layers                                1
 # MPI messages exchanged                   42816
 MPI messages size (bytes):
  total size                        30.280425E+09
  min size                           0.000000E+00
  max size                         943.360000E+03
  average size                     707.222188E+03
 MPI breakdown and total messages size (bytes):
             size <=      128                1710                        0
       128 < size <=     8192                 114                    73872
      8192 < size <=    32768                   0                        0
     32768 < size <=   131072                1008                 52998624
    131072 < size <=  4194304               39984              30227365584
   4194304 < size <= 16777216                   0                        0
  16777216 < size                               0                        0
 -------------------------------------------------------------------------------
 -                                                                             -
 -                      DBCSR MESSAGE PASSING PERFORMANCE                      -
 -                                                                             -
 -------------------------------------------------------------------------------
 ROUTINE             CALLS      AVE VOLUME [Bytes]
 MP_Bcast               25                     12.
 MP_Allreduce         3194                      8.
 MP_Alltoall         12548                 636450.
 MP_ISend             7136                 273314.
 MP_IRecv             7136                 251624.
 -------------------------------------------------------------------------------

 -------------------------------------------------------------------------------
 -                                                                             -
 -                                DBM STATISTICS                               -
 -                                                                             -
 -------------------------------------------------------------------------------
    M  x    N  x    K                                          COUNT     PERCENT
 -------------------------------------------------------------------------------

 -------------------------------------------------------------------------------
 -                                                                             -
 -                                GRID STATISTICS                              -
 -                                                                             -
 -------------------------------------------------------------------------------
 LP    KERNEL             BACKEND                              COUNT     PERCENT
 4     collocate ortho    REF                               50930408      49.88%
 4     integrate ortho    REF                               50457736      49.41%
 3     collocate ortho    REF                                 341170       0.33%
 3     integrate ortho    REF                                 337900       0.33%
 2     collocate ortho    REF                                  16317       0.02%
 2     integrate ortho    REF                                  16121       0.02%
 0     collocate general  REF                                  10800       0.01%
 -------------------------------------------------------------------------------

 MEMORY| Estimated peak process memory [MiB]                                1957

 -------------------------------------------------------------------------------
 -                                                                             -
 -                         MESSAGE PASSING PERFORMANCE                         -
 -                                                                             -
 -------------------------------------------------------------------------------

 ROUTINE             CALLS      AVE VOLUME [Bytes]
 MP_Group               24
 MP_Bcast             1017                 802186.
 MP_Allreduce         5562                   1386.
 MP_Sync               489
 MP_Alltoall          5898               63376094.
 MP_SendRecv         18882                 475549.
 MP_ISendRecv        13380                 444928.
 MP_Wait             33169
 MP_comm_split          19
 MP_ISend            14392                3185791.
 MP_IRecv            14392                3185887.
 MP_Recv               331                 739414.
 -------------------------------------------------------------------------------


 -------------------------------------------------------------------------------
 -                                                                             -
 -                           R E F E R E N C E S                               -
 -                                                                             -
 -------------------------------------------------------------------------------
 
 CP2K version 2023.1, the CP2K developers group (2023).
 CP2K is freely available from https://www.cp2k.org/ .

 Kuehne,Thomas D.; Iannuzzi,Marcella; Del Ben,Mauro;
 Rybkin,Vladimir V.; Seewald,Patrick; Stein,Frederick; Laino,Teodoro;
 Khaliullin,Rustam Z.; Schuett,Ole; Schiffmann,Florian; Golze,Dorothea;
 Wilhelm,Jan; Chulkov,Sergey; Bani-Hashemian,Mohammad Hossein;
 Weber,Valery; Borstnik,Urban; Taillefumier,Mathieu;
 Jakobovits,Alice Shoshana; Lazzaro,Alfio; Pabst,Hans; Mueller,Tiziano;
 Schade,Robert; Guidon,Manuel; Andermatt,Samuel; Holmberg,Nico;
 Schenter,Gregory K.; Hehn,Anna; Bussy,Augustin; Belleflamme,Fabian;
 Tabacchi,Gloria; Gloess,Andreas; Lass,Michael; Bethune,Iain;
 Mundy,Christopher J.; Plessl,Christian; Watkins,Matt;
 VandeVondele,Joost; Krack,Matthias; Hutter,Juerg. 
 The Journal of Chemical Physics, 152 (19), (2020). 
 CP2K: An electronic structure and molecular dynamics software package -
 Quickstep: Efficient and accurate electronic structure calculations.
 https://doi.org/10.1063/5.0007045

 Goerigk, Lars; Hansen, Andreas; Bauer, Christoph; Ehrlich, Stephan;
 Najibi, Asim; Grimme, Stefan. , 19 (48), (2017). 
 A look at the density functional theory zoo with the advanced GMTKN55 database
 for general main group thermochemistry, kinetics and noncovalent interactions.
 https://doi.org/10.1039/C7CP04913G

 Schuett, Ole; Messmer, Peter; Hutter, Juerg; VandeVondele, Joost. 
 Electronic Structure Calculations on Graphics Processing Units, John
 Wiley & Sons, Ltd, 173-190 (2016). 
 GPU-Accelerated Sparse Matrix-Matrix Multiplication for
 Linear Scaling Density Functional Theory.
 https://doi.org/10.1002/9781118670712.ch8

 Borstnik, U; VandeVondele, J; Weber, V; Hutter, J. 
 PARALLEL COMPUTING, 40 (5-6), 47-58 (2014). 
 Sparse matrix multiplication: The distributed block-compressed sparse
 row library.
 https://doi.org/10.1016/j.parco.2014.03.012

 Hutter, J; Iannuzzi, M; Schiffmann, F; VandeVondele, J. 
 WIREs Comput Mol Sci., 4 (1), 15-25 (2014). 
 CP2K: atomistic simulations of condensed matter systems.
 https://doi.org/10.1002/wcms.1159

 Marek, A; Blum, V; Johanni, R; Havu, V; Lang, B; Auckenthaler, T;
 Heinecke, A; Bungartz, H; Lederer, H. 
 Journal of Physics: Condensed Matter, 26 (21), (2014). 
 The ELPA library: scalable parallel eigenvalue solutions for
 electronic structure
 theory and computational science.
 https://doi.org/10.1088/0953-8984/26/21/213201

 Grimme, S; Ehrlich, S; Goerigk, L. 
 JOURNAL OF COMPUTATIONAL CHEMISTRY, 32, 1456 (2011). 
 Effect of the damping function in dispersion corrected density functional theory.
 https://doi.org/10.1002/jcc.21759

 Grimme, S; Antony, J; Ehrlich, S; Krieg, H. 
 JOURNAL OF CHEMICAL PHYSICS, 132 (15), 154104 (2010). 
 A consistent and accurate ab initio parametrization of density
 functional dispersion correction (DFT-D) for the 94 elements H-Pu.
 https://doi.org/10.1063/1.3382344

 VandeVondele, J; Hutter, J. 
 JOURNAL OF CHEMICAL PHYSICS, 127 (11), 114105 (2007). 
 Gaussian basis sets for accurate calculations on molecular systems in
 gas and condensed phases.
 https://doi.org/10.1063/1.2770708

 Krack, M. 
 THEORETICAL CHEMISTRY ACCOUNTS, 114 (1-3), 145-152 (2005). 
 Pseudopotentials for H to Kr optimized for gradient-corrected
 exchange-correlation functionals.
 https://doi.org/10.1007/s00214-005-0655-y

 VandeVondele, J; Krack, M; Mohamed, F; Parrinello, M; Chassaing, T;
 Hutter, J. COMPUTER PHYSICS COMMUNICATIONS, 167 (2), 103-128 (2005). 
 QUICKSTEP: Fast and accurate density functional calculations using a
 mixed Gaussian and plane waves approach.
 https://doi.org/10.1016/j.cpc.2004.12.014

 Frigo, M; Johnson, SG. 
 PROCEEDINGS OF THE IEEE, 93 (2), 216-231 (2005). 
 The design and implementation of FFTW3.
 https://doi.org/10.1109/JPROC.2004.840301

 Hartwigsen, C; Goedecker, S; Hutter, J. 
 PHYSICAL REVIEW B, 58 (7), 3641-3662 (1998). 
 Relativistic separable dual-space Gaussian pseudopotentials from H to Rn.
 https://doi.org/10.1103/PhysRevB.58.3641

 Lippert, G; Hutter, J; Parrinello, M. 
 MOLECULAR PHYSICS, 92 (3), 477-487 (1997). 
 A hybrid Gaussian and plane wave density functional scheme.
 https://doi.org/10.1080/002689797170220

 Goedecker, S; Teter, M; Hutter, J. 
 PHYSICAL REVIEW B, 54 (3), 1703-1710 (1996). 
 Separable dual-space Gaussian pseudopotentials.
 https://doi.org/10.1103/PhysRevB.54.1703

 BECKE, AD. PHYSICAL REVIEW A, 38 (6), 3098-3100 (1988). 
 DENSITY-FUNCTIONAL EXCHANGE-ENERGY APPROXIMATION WITH CORRECT
 ASYMPTOTIC-BEHAVIOR.
 https://doi.org/10.1103/PhysRevA.38.3098

 LEE, CT; YANG, WT; PARR, RG. 
 PHYSICAL REVIEW B, 37 (2), 785-789 (1988). 
 DEVELOPMENT OF THE COLLE-SALVETTI CORRELATION-ENERGY FORMULA INTO A
 FUNCTIONAL OF THE ELECTRON-DENSITY.
 https://doi.org/10.1103/PhysRevB.37.785


 -------------------------------------------------------------------------------
 -                                                                             -
 -                                T I M I N G                                  -
 -                                                                             -
 -------------------------------------------------------------------------------
 SUBROUTINE                       CALLS  ASD         SELF TIME        TOTAL TIME
                                MAXIMUM       AVERAGE  MAXIMUM  AVERAGE  MAXIMUM
 CP2K                                 1  1.0    0.174    0.184 6138.646 6138.648
 qs_energies                          5  2.0    0.003    0.003 6132.079 6132.435
 scf_env_do_scf                       5  3.0    0.012    0.016 6109.615 6109.984
 scf_env_do_scf_inner_loop          446  4.0    0.023    0.053 6109.603 6109.973
 qs_scf_new_mos                     446  5.0    0.010    0.012 2325.468 2329.441
 eigensolver                        446  6.0    0.041    0.062 2282.494 2284.041
 qs_ks_update_qs_env                446  5.0    0.004    0.005 1691.753 1691.873
 rebuild_ks_matrix                  446  6.0    0.002    0.003 1690.980 1691.106
 qs_ks_build_kohn_sham_matrix       446  7.0    0.095    0.100 1690.978 1691.103
 cp_fm_diag_elpa                    427  7.0    0.004    0.005 1407.546 1407.917
 cp_fm_diag_elpa_base               427  8.0 1402.209 1403.558 1407.098 1407.100
 qs_rho_update_rho_low              451  5.0    0.004    0.004 1394.048 1394.361
 calculate_rho_elec                 451  6.0    3.959    4.044 1394.045 1394.358
 density_rs2pw                      451  7.0    0.040    0.045 1107.190 1293.126
 sum_up_and_integrate               446  8.0   13.064   14.247 1199.997 1200.148
 integrate_v_rspace                 446  9.0    0.027    0.030 1186.931 1188.701
 pw_transfer                       5823  8.9    0.760    0.845  952.049  981.476
 rs_pw_transfer                    3593  9.5    0.093    0.104  779.477  971.483
 fft_wrap_pw1pw2                   4931  9.9    0.088    0.096  929.079  961.724
 grid_collocate_task_list           451  7.0  271.566  907.490  271.566  907.490
 mp_waitany                       14392 11.5  696.508  904.859  696.508  904.859
 rs_pw_transfer_RS2PW_150           456  9.0   14.570   19.982  560.688  883.869
 fft_wrap_pw1pw2_150               2240 10.2   72.763   80.446  852.900  879.641
 cp_fm_triangular_multiply         1338  7.0  870.534  873.627  870.534  873.627
 grid_integrate_task_list           446 10.0  236.211  867.290  236.211  867.290
 mp_alltoall_d11v                  6279  9.3  671.533  851.930  671.533  851.930
 rs_gather_matrices                 446 10.0    0.683    0.816  666.536  846.280
 fft3d_ps                          4931 11.9  367.668  388.685  664.155  728.258
 gspace_mixing                      441  5.0    3.864    3.937  706.994  706.996
 broyden_mixing                     441  6.0  508.789  550.856  528.501  555.974
 rs_pw_transfer_RS2PW_50            451  9.0    5.572    7.512  143.977  539.807
 potential_pw2rs                    446 10.0    0.487    0.724  284.157  286.119
 qs_vxc_create                      446  8.0    0.016    0.020  237.333  257.152
 xc_vxc_pw_create                   446  9.0   13.220   16.676  237.317  257.135
 mp_alltoall_z22v                  4931 13.9  108.527  231.435  108.527  231.435
 x_to_yz                           2676 13.2  120.775  133.123  186.269  226.891
 xc_rho_set_and_dset_create         446 10.0   30.427   38.944  150.106  163.721
 xc_pw_derive                      2676 11.0    0.015    0.019  100.340  162.255
 pw_nn_compose_r                   2676 12.0   58.814   66.672  100.324  162.244
 yz_to_x                           2255 12.6   66.983   74.811  110.015  147.625
 mp_sendrecv_dm2                   5352 13.0   41.511  124.079   41.511  124.079
 -------------------------------------------------------------------------------

 The number of warnings for this run is : 6
 
 -------------------------------------------------------------------------------
  **** **** ******  **  PROGRAM ENDED AT                 2025-04-15 18:41:23.895
 ***** ** ***  *** **   PROGRAM RAN ON                                sebnode130
 **    ****   ******    PROGRAM RAN BY                                    luehrs
 ***** **    ** ** **   PROGRAM PROCESS ID                               1329892
  **** **  *******  **  PROGRAM STOPPED IN /home/luehrs/PhD/Sodium_batteries/Sod
                                           ium-graphene-curvature/Curved_surface
                                           _concave/Zig-Zag1
