     131
 i =      103, E =      -731.2936017156
  C         8.6232435353       14.9940145206        0.3362375037
  C         9.8587897708       15.6756152264        0.4677709331
  C        11.0906510030       15.0154976543        0.5718060307
  C        12.3437312323       15.7145216011        0.7598641429
  C        13.5737630240       15.0245336018        0.4111646877
  C        14.7866709234       15.6758141176        0.1758432312
  C        16.0038740723       14.9826310512       -0.0001992148
  C        17.2193315496       15.6699103378       -0.1426995656
  C        18.4521654515       14.9886697023       -0.1987339540
  C        19.6794496773       15.6746248592       -0.2462394486
  C        20.9113488424       14.9924324704       -0.2126744281
  C        22.1406557745       15.6782572312       -0.1857634761
  C        23.3688537993       14.9958838714       -0.0994168794
  C        24.5976786892       15.6807479816       -0.0228779747
  C        25.8212901930       14.9987182110        0.0956520205
  C        27.0528793080       15.6795558097        0.2035952671
  C        25.8193585500       13.5541045642        0.1107359178
  C        23.3665690332       13.5508500222       -0.0723516352
  C        20.9107487923       13.5476050430       -0.1756658412
  C        18.4540277612       13.5455962460       -0.1596523291
  C        16.0040970305       13.5466981278        0.0150315238
  C        14.7717845524       12.8539144522        0.1329828699
  C        13.5546585104       13.5785809748        0.3025990156
  C        12.3237887482       12.8593652403        0.3633511946
  C        11.0933250009       13.5721102175        0.4381579977
  C         9.8610508392       12.8561820560        0.3550025208
  C         8.6240898986       13.5533000085        0.3181083512
  C         7.3968845891       12.8451273209        0.2084871548
  C        24.5926471278       12.8429031788        0.0183717534
  C        22.1388691662       12.8391052319       -0.1200360886
  C        19.6826276900       12.8367476483       -0.1681599216
  C        17.2279869956       12.8366439208       -0.0805464092
  C        24.5908963512       11.4110723394        0.0252864599
  C        23.3641292030       10.6978536244       -0.0371609055
  C        22.1365531316       11.4076045466       -0.0947803541
  C        20.9081859227       10.6947829401       -0.1152911228
  C        19.6806192313       11.4054037757       -0.1350971715
  C        18.4512214782       10.6938963682       -0.1060448537
  C        17.2245335792       11.4068947742       -0.0665045911
  C        15.9930164102       10.7018744826        0.0033475109
  C        14.7679658557       11.4198807663        0.1004792545
  C        13.5417842330       10.7082717341        0.1705233433
  C        12.3182704491       11.4269194994        0.2732011287
  C        11.0877711760       10.7105299171        0.2641061017
  C         9.8598659991       11.4221096351        0.2860453564
  C         8.6295499639       10.7063055318        0.2202816493
  C         7.3975955044       11.4135434490        0.1806911481
  C         6.1712429110       10.7006041528        0.0953660795
  C         6.1709848481        9.2725466977        0.0751030499
  C         7.3992086742        8.5633465815        0.1108314081
  C         8.6278261801        9.2782086082        0.1730943910
  C         9.8563023857        8.5657158061        0.1681151021
  C        11.0847457619        9.2803704013        0.1955793512
  C        12.3111119127        8.5643121652        0.1389978467
  C        13.5398899283        9.2784745976        0.1159490787
  C        14.7641638225        8.5615095234        0.0348105748
  C        15.9926754272        9.2725489011       -0.0105655223
  C        17.2194089929        8.5566682451       -0.0650304160
  C        18.4491578956        9.2658590150       -0.0947842669
  C        19.6775421815        8.5528491449       -0.1031771265
  C        20.9062224537        9.2657850454       -0.1004924576
  C        22.1347936735        8.5542400574       -0.0756842811
  C        23.3630124305        9.2686850297       -0.0349830146
  C        22.1330193886        7.1247529596       -0.0785841477
  C        20.9033850101        6.4104671979       -0.0952742167
  C        19.6757137585        7.1232171962       -0.0990302789
  C        18.4452842953        6.4109023948       -0.0933190943
  C        17.2172471370        7.1264001385       -0.0728734605
  C        15.9881482171        6.4147362521       -0.0499821460
  C        14.7608614378        7.1310800866        0.0017389987
  C        13.5333976867        6.4198034116        0.0240556339
  C        12.3072500036        7.1351749386        0.0838549053
  C        11.0785410158        6.4234930244        0.0781988394
  C         9.8531824909        7.1364875378        0.1104572494
  C         8.6240462810        6.4221985874        0.0731696526
  C         7.3964522751        7.1342158875        0.0712445640
  C         6.1689252950        6.4201966459        0.0151884631
  C         4.9407008976        7.1293159085       -0.0099805679
  C         4.9427005979        8.5581549647        0.0094821559
  C         3.7125075995        6.4144873446       -0.0563578504
  C         3.7123566860        4.9811723660       -0.0717943650
  C         4.9433673071        4.2746674877       -0.0609663173
  C         6.1700329292        4.9868279883       -0.0201176143
  C         7.3970744941        4.2796750409       -0.0182221918
  C         8.6218031747        4.9922510398        0.0195254596
  C         9.8467546046        4.2806866751       -0.0029753481
  C        11.0734347930        4.9899430544        0.0204460079
  C        12.2990781386        4.2783201216       -0.0186753166
  C        13.5300584904        4.9864254196       -0.0169724879
  C        14.7545021503        4.2733333829       -0.0587018565
  C        15.9861203218        4.9813763782       -0.0685241967
  C        17.2130494733        4.2694553413       -0.0903271191
  C        18.4434220621        4.9777222547       -0.0957643049
  C        19.6732937225        4.2670103548       -0.1000140284
  C        20.9019524916        4.9773085289       -0.0968176700
  C        19.6728037504        2.8205853387       -0.1028094848
  C        18.4419527458        2.1360025001       -0.1047380284
  C        17.2134363043        2.8233792201       -0.0993439086
  C        15.9814898222        2.1389178443       -0.1026413168
  C        14.7552029737        2.8276085404       -0.0865057845
  C        13.5210701960        2.1434385646       -0.0956675258
  C        12.2990653716        2.8346527952       -0.0691236416
  C        11.0602217780        2.1508608090       -0.0880737517
  C         9.8334586455        2.8311514247       -0.0603706574
  C         8.6215453676        2.0934511127       -0.0846063254
  C         6.1821882926        2.1485363047       -0.0939804755
  C         7.4094249434        2.8298949240       -0.0650455486
  C         4.9420986516        2.8307206232       -0.0877682452
  C         3.7193554536        2.1389335151       -0.1048938935
  C         2.4839454793        2.8220087069       -0.1004664768
  C         2.4855547893        4.2683275547       -0.0921719578
  C         1.2559331042        2.1348406700       -0.1050211720
  H        27.0558080264       16.7692603507        0.1566984086
  H        24.5967378285       16.7696145086       -0.0483175896
  H        22.1399110550       16.7671198941       -0.2117063378
  H        17.2133309383       16.7588832923       -0.1638699814
  H        14.8217535845       16.7568754290        0.1517420260
  H        13.3063765733       18.4462640820        2.0763958332
  H         9.8551485944       16.7595960032        0.3704956863
  H         1.2566812579        1.0459455170       -0.1097421660
  H         3.7252710189        1.0498998685       -0.1200865510
  H         6.2083380078        1.0593157457       -0.1242445577
  H        19.6772102103       16.7634742568       -0.2771615978
  H        11.0352791514        1.0619726542       -0.1275804776
  H        13.5153552517        1.0546295341       -0.1247403025
  H        15.9785055567        1.0499924484       -0.1172343784
  H        18.4401938052        1.0470691204       -0.1100142575
  C        12.3298683420       16.9882564640        1.4257486521
  O        13.5195217081       17.6655992381        1.5277952527
  O        11.3407283450       17.5333896478        1.9992464279
 Na         9.4929260887       16.8629334222        2.9163272348
