 DBCSR| CPU Multiplication driver                                           BLAS (U)
 DBCSR| Multrec recursion limit                                              512 (U)
 DBCSR| Multiplication stack size                                           1000 (D)
 DBCSR| Maximum elements for images                                    UNLIMITED (U)
 DBCSR| Multiplicative factor virtual images                                   1 (U)
 DBCSR| Use multiplication densification                                       T (D)
 DBCSR| Multiplication size stacks                                             3 (U)
 DBCSR| Use memory pool for CPU allocation                                     F (U)
 DBCSR| Number of 3D layers                                               SINGLE (U)
 DBCSR| Use MPI memory allocation                                              F (U)
 DBCSR| Use RMA algorithm                                                      F (U)
 DBCSR| Use Communication thread                                               T (U)
 DBCSR| Communication thread load                                             87 (D)
 DBCSR| MPI: My process id                                                     0
 DBCSR| MPI: Number of processes                                              16
 DBCSR| OMP: Current number of threads                                         1
 DBCSR| OMP: Max number of threads                                             1
 DBCSR| Split modifier for TAS multiplication algorithm                  1.0E+00 (U)


  **** **** ******  **  PROGRAM STARTED AT               2025-06-13 03:37:27.338
 ***** ** ***  *** **   PROGRAM STARTED ON                            sebnode101
 **    ****   ******    PROGRAM STARTED BY                                luehrs
 ***** **    ** ** **   PROGRAM PROCESS ID                                788699
  **** **  *******  **  PROGRAM STARTED IN /home/luehrs/PhD/Sodium_batteries/Sod
                                           ium-graphene-edge/Zig_zag_1/Hydrogen/
                                           Sodium

 CP2K| version string:                                       CP2K version 2023.1
 CP2K| source code revision number:                                  git:b888bd8
 CP2K| cp2kflags: omp libint fftw3 libxc elpa parallel scalapack spglib         
 CP2K| is freely available from                            https://www.cp2k.org/
 CP2K| Program compiled at                          Tue Jan 10 19:52:03 UTC 2023
 CP2K| Program compiled on                                            x86-ubc-01
 CP2K| Program compiled for                                Linux-x86_64-gfortran
 CP2K| Data directory path                                       /usr/share/cp2k
 CP2K| Input file name              graphene_zig_zag_sodium_BSSE_PBE-1_2.restart

 GLOBAL| Force Environment number                                              1
 GLOBAL| Basis set file name                                      ./BASIS_MOLOPT
 GLOBAL| Potential file name                                    ./GTH_POTENTIALS
 GLOBAL| MM Potential file name                                     MM_POTENTIAL
 GLOBAL| Coordinate file name           graphene_zig_zag_hydrogen_sodium_relaxed
 GLOBAL| Method name                                                        CP2K
 GLOBAL| Project name                           graphene_zig_zag_sodium_BSSE_PBE
 GLOBAL| Run type                                                           BSSE
 GLOBAL| FFT library                                                       FFTW3
 GLOBAL| Diagonalization library                                            ELPA
 GLOBAL| DGEMM library                                                      BLAS
 GLOBAL| Minimum number of eigenvectors for ELPA usage                        16
 GLOBAL| Orthonormality check for eigenvectors                          DISABLED
 GLOBAL| Matrix multiplication library                                 ScaLAPACK
 GLOBAL| All-to-all communication in single precision                          F
 GLOBAL| FFTs using library dependent lengths                                  F
 GLOBAL| Grid backend                                                       AUTO
 GLOBAL| Global print level                                               MEDIUM
 GLOBAL| MPI I/O enabled                                                       T
 GLOBAL| Total number of message passing processes                            16
 GLOBAL| Number of threads for this process                                    1
 GLOBAL| This output is from process                                           0
 GLOBAL| Stack size for threads created by OpenMP (OMP_STACKSIZE)        default
 GLOBAL| CPU model name                Intel(R) Xeon(R) CPU E5-2620 v4 @ 2.10GHz

 MEMORY| system memory details [Kb]
 MEMORY|                        rank 0           min           max       average
 MEMORY| MemTotal             65831280      65831280      65831280      65831280
 MEMORY| MemFree              62747616      62747616      62747616      62747616
 MEMORY| Buffers                251556        251556        251556        251556
 MEMORY| Cached                 775148        775148        775148        775148
 MEMORY| Slab                   249296        249296        249296        249296
 MEMORY| SReclaimable           124928        124928        124928        124928
 MEMORY| MemLikelyFree        63899248      63899248      63899248      63899248


 *** Fundamental physical constants (SI units) ***

 *** Literature: B. J. Mohr and B. N. Taylor,
 ***             CODATA recommended values of the fundamental physical
 ***             constants: 2006, Web Version 5.1
 ***             http://physics.nist.gov/constants

 Speed of light in vacuum [m/s]                             2.99792458000000E+08
 Magnetic constant or permeability of vacuum [N/A**2]       1.25663706143592E-06
 Electric constant or permittivity of vacuum [F/m]          8.85418781762039E-12
 Planck constant (h) [J*s]                                  6.62606896000000E-34
 Planck constant (h-bar) [J*s]                              1.05457162825177E-34
 Elementary charge [C]                                      1.60217648700000E-19
 Electron mass [kg]                                         9.10938215000000E-31
 Electron g factor [ ]                                     -2.00231930436220E+00
 Proton mass [kg]                                           1.67262163700000E-27
 Fine-structure constant                                    7.29735253760000E-03
 Rydberg constant [1/m]                                     1.09737315685270E+07
 Avogadro constant [1/mol]                                  6.02214179000000E+23
 Boltzmann constant [J/K]                                   1.38065040000000E-23
 Atomic mass unit [kg]                                      1.66053878200000E-27
 Bohr radius [m]                                            5.29177208590000E-11

 *** Conversion factors ***

 [u] -> [a.u.]                                              1.82288848426455E+03
 [Angstrom] -> [Bohr] = [a.u.]                              1.88972613288564E+00
 [a.u.] = [Bohr] -> [Angstrom]                              5.29177208590000E-01
 [a.u.] -> [s]                                              2.41888432650478E-17
 [a.u.] -> [fs]                                             2.41888432650478E-02
 [a.u.] -> [J]                                              4.35974393937059E-18
 [a.u.] -> [N]                                              8.23872205491840E-08
 [a.u.] -> [K]                                              3.15774647902944E+05
 [a.u.] -> [kJ/mol]                                         2.62549961709828E+03
 [a.u.] -> [kcal/mol]                                       6.27509468713739E+02
 [a.u.] -> [Pa]                                             2.94210107994716E+13
 [a.u.] -> [bar]                                            2.94210107994716E+08
 [a.u.] -> [atm]                                            2.90362800883016E+08
 [a.u.] -> [eV]                                             2.72113838565563E+01
 [a.u.] -> [Hz]                                             6.57968392072181E+15
 [a.u.] -> [1/cm] (wave numbers)                            2.19474631370540E+05
 [a.u./Bohr**2] -> [1/cm]                                   5.14048714338585E+03
 

 CELL_TOP| Volume [angstrom^3]:                                     13612.533707
 CELL_TOP| Vector a [angstrom    19.648     0.000     0.000   |a| =    19.648000
 CELL_TOP| Vector b [angstrom    20.000    34.641     0.000   |b| =    40.000000
 CELL_TOP| Vector c [angstrom     0.000     0.000    20.000   |c| =    20.000000
 CELL_TOP| Angle (b,c), alpha [degree]:                                90.000000
 CELL_TOP| Angle (a,c), beta  [degree]:                                90.000000
 CELL_TOP| Angle (a,b), gamma [degree]:                                60.000000
 CELL_TOP| Requested initial symmetry:                                 TRICLINIC
 CELL_TOP| Numerically orthorhombic:                                          NO
 CELL_TOP| Periodicity                                                       XYZ

 GENERATE|  Preliminary Number of Bonds generated:                             0
 GENERATE|  Achieved consistency in connectivity generation.

 CELL| Volume [angstrom^3]:                                         13612.533707
 CELL| Vector a [angstrom]:      19.648     0.000     0.000   |a| =    19.648000
 CELL| Vector b [angstrom]:      20.000    34.641     0.000   |b| =    40.000000
 CELL| Vector c [angstrom]:       0.000     0.000    20.000   |c| =    20.000000
 CELL| Angle (b,c), alpha [degree]:                                    90.000000
 CELL| Angle (a,c), beta  [degree]:                                    90.000000
 CELL| Angle (a,b), gamma [degree]:                                    60.000000
 CELL| Requested initial symmetry:                                     TRICLINIC
 CELL| Numerically orthorhombic:                                              NO
 CELL| Periodicity                                                           XYZ

 CELL_REF| Volume [angstrom^3]:                                     13612.533707
 CELL_REF| Vector a [angstrom    19.648     0.000     0.000   |a| =    19.648000
 CELL_REF| Vector b [angstrom    20.000    34.641     0.000   |b| =    40.000000
 CELL_REF| Vector c [angstrom     0.000     0.000    20.000   |c| =    20.000000
 CELL_REF| Angle (b,c), alpha [degree]:                                90.000000
 CELL_REF| Angle (a,c), beta  [degree]:                                90.000000
 CELL_REF| Angle (a,b), gamma [degree]:                                60.000000
 CELL_REF| Requested initial symmetry:                                 TRICLINIC
 CELL_REF| Numerically orthorhombic:                                          NO
 CELL_REF| Periodicity                                                       XYZ

 *******************************************************************************
 *******************************************************************************
 **                                                                           **
 **     #####                         ##              ##                      **
 **    ##   ##            ##          ##              ##                      **
 **   ##     ##                       ##            ######                    **
 **   ##     ##  ##   ##  ##   #####  ##  ##   ####   ##    #####    #####    **
 **   ##     ##  ##   ##  ##  ##      ## ##   ##      ##   ##   ##  ##   ##   **
 **   ##  ## ##  ##   ##  ##  ##      ####     ###    ##   ######   ######    **
 **    ##  ###   ##   ##  ##  ##      ## ##      ##   ##   ##       ##        **
 **     #######   #####   ##   #####  ##  ##  ####    ##    #####   ##        **
 **           ##                                                    ##        **
 **                                                                           **
 **                                                ... make the atoms dance   **
 **                                                                           **
 **            Copyright (C) by CP2K developers group (2000-2022)             **
 **                      J. Chem. Phys. 152, 194103 (2020)                    **
 **                                                                           **
 *******************************************************************************

 DFT| Spin unrestricted (spin-polarized) Kohn-Sham calculation               UKS
 DFT| Multiplicity                                                             2
 DFT| Number of spin states                                                    2
 DFT| Charge                                                                   0
 DFT| Self-interaction correction (SIC)                                       NO
 DFT| Cutoffs: density                                              1.000000E-10
 DFT|          gradient                                             1.000000E-10
 DFT|          tau                                                  1.000000E-10
 DFT|          cutoff_smoothing_range                               0.000000E+00
 DFT| XC density smoothing                                                  NONE
 DFT| XC derivatives                                              SPLINE2_SMOOTH

 FUNCTIONAL| PBE:
 FUNCTIONAL| J.P.Perdew, K.Burke, M.Ernzerhof, Phys. Rev. Letter, vol. 77, n 18,
 FUNCTIONAL|  pp. 3865-3868, (1996){spin polarized}                             

 vdW POTENTIAL|                                                   Pair Potential
 vdW POTENTIAL|          DFT-D3 (Version 3.1)
 vdW POTENTIAL|          Potential Form: S. Grimme et al, JCP 132: 154104 (2010)
 vdW POTENTIAL|          Zero Damping
 vdW POTENTIAL|          Cutoff Radius [Bohr]:                             20.00
 vdW POTENTIAL|          s6 Scaling Factor:                               1.0000
 vdW POTENTIAL|          sr6 Scaling Factor:                              1.2170
 vdW POTENTIAL|          s8 Scaling Factor:                               0.7220
 vdW POTENTIAL|          Cutoff for CN calculation:                   0.1000E-05

 QS| Method:                                                                 GPW
 QS| Density plane wave grid type                        NON-SPHERICAL FULLSPACE
 QS| Number of grid levels:                                                    4
 QS| Density cutoff [a.u.]:                                                150.0
 QS| Multi grid cutoff [a.u.]: 1) grid level                               150.0
 QS|                           2) grid level                                50.0
 QS|                           3) grid level                                16.7
 QS|                           4) grid level                                 5.6
 QS| Grid level progression factor:                                          3.0
 QS| Relative density cutoff [a.u.]:                                        20.0
 QS| Interaction thresholds: eps_pgf_orb:                                1.0E-06
 QS|                         eps_filter_matrix:                          0.0E+00
 QS|                         eps_core_charge:                            1.0E-14
 QS|                         eps_rho_gspace:                             1.0E-12
 QS|                         eps_rho_rspace:                             1.0E-12
 QS|                         eps_gvg_rspace:                             1.0E-06
 QS|                         eps_ppl:                                    1.0E-02
 QS|                         eps_ppnl:                                   1.0E-08


 ATOMIC KIND INFORMATION

  1. Atomic kind: C                                     Number of atoms:     112

     Orbital Basis Set                                        DZVP-MOLOPT-SR-GTH

       Number of orbital shell sets:                                           1
       Number of orbital shells:                                               5
       Number of primitive Cartesian functions:                                5
       Number of Cartesian basis functions:                                   14
       Number of spherical basis functions:                                   13
       Norm type:                                                              2

       Normalised Cartesian orbitals:

                        Set   Shell   Orbital            Exponent    Coefficient

                          1       1    2s                5.605331       0.322515
                                                         2.113016       0.213043
                                                         0.769911      -0.209686
                                                         0.348157      -0.219794
                                                         0.128212      -0.022789

                          1       2    3s                5.605331       0.552234
                                                         2.113016       0.082072
                                                         0.769911       0.007843
                                                         0.348157       0.136893
                                                         0.128212       0.074283

                          1       3    3px               5.605331      -0.703879
                                                         2.113016      -0.642521
                                                         0.769911      -0.374851
                                                         0.348157      -0.139743
                                                         0.128212      -0.027849
                          1       3    3py               5.605331      -0.703879
                                                         2.113016      -0.642521
                                                         0.769911      -0.374851
                                                         0.348157      -0.139743
                                                         0.128212      -0.027849
                          1       3    3pz               5.605331      -0.703879
                                                         2.113016      -0.642521
                                                         0.769911      -0.374851
                                                         0.348157      -0.139743
                                                         0.128212      -0.027849

                          1       4    4px               5.605331      -0.480376
                                                         2.113016      -0.552894
                                                         0.769911      -0.316145
                                                         0.348157       0.210505
                                                         0.128212       0.076095
                          1       4    4py               5.605331      -0.480376
                                                         2.113016      -0.552894
                                                         0.769911      -0.316145
                                                         0.348157       0.210505
                                                         0.128212       0.076095
                          1       4    4pz               5.605331      -0.480376
                                                         2.113016      -0.552894
                                                         0.769911      -0.316145
                                                         0.348157       0.210505
                                                         0.128212       0.076095

                          1       5    4dx2              5.605331       0.640026
                                                         2.113016       0.274300
                                                         0.769911       0.446711
                                                         0.348157       0.028674
                                                         0.128212       0.029790
                          1       5    4dxy              5.605331       1.108557
                                                         2.113016       0.475102
                                                         0.769911       0.773726
                                                         0.348157       0.049666
                                                         0.128212       0.051599
                          1       5    4dxz              5.605331       1.108557
                                                         2.113016       0.475102
                                                         0.769911       0.773726
                                                         0.348157       0.049666
                                                         0.128212       0.051599
                          1       5    4dy2              5.605331       0.640026
                                                         2.113016       0.274300
                                                         0.769911       0.446711
                                                         0.348157       0.028674
                                                         0.128212       0.029790
                          1       5    4dyz              5.605331       1.108557
                                                         2.113016       0.475102
                                                         0.769911       0.773726
                                                         0.348157       0.049666
                                                         0.128212       0.051599
                          1       5    4dz2              5.605331       0.640026
                                                         2.113016       0.274300
                                                         0.769911       0.446711
                                                         0.348157       0.028674
                                                         0.128212       0.029790

       Atomic covalent radius [Angstrom]:                                  0.770

       Atomic van der Waals radius [Angstrom]:                             1.700

     GTH Potential information for                                    GTH-PBE-q4

       Description:                       Goedecker-Teter-Hutter pseudopotential
                                           Goedecker et al., PRB 54, 1703 (1996)
                                          Hartwigsen et al., PRB 58, 3641 (1998)
                                                      Krack, TCA 114, 145 (2005)

       Gaussian exponent of the core charge distribution:               4.364419
       Electronic configuration (s p d ...):                               2   2

       Parameters of the local part of the GTH pseudopotential:

                          rloc        C1          C2          C3          C4
                        0.338471   -8.803674    1.339211

       Parameters of the non-local part of the GTH pseudopotential:

                   l      r(l)      h(i,j,l)

                   0    0.302576    9.622487
                   1    0.291507

  2. Atomic kind: H                                     Number of atoms:      16

     Orbital Basis Set                                        DZVP-MOLOPT-SR-GTH

       Number of orbital shell sets:                                           1
       Number of orbital shells:                                               3
       Number of primitive Cartesian functions:                                5
       Number of Cartesian basis functions:                                    5
       Number of spherical basis functions:                                    5
       Norm type:                                                              2

       Normalised Cartesian orbitals:

                        Set   Shell   Orbital            Exponent    Coefficient

                          1       1    2s               10.068468      -0.133023
                                                         2.680223      -0.177618
                                                         0.791502      -0.258419
                                                         0.239116      -0.107525
                                                         0.082193      -0.014019

                          1       2    3s               10.068468       0.344673
                                                         2.680223       1.819821
                                                         0.791502      -0.999069
                                                         0.239116       0.017430
                                                         0.082193       0.082660

                          1       3    3px              10.068468       0.155326
                                                         2.680223       0.367157
                                                         0.791502       0.311480
                                                         0.239116       0.080105
                                                         0.082193       0.033440
                          1       3    3py              10.068468       0.155326
                                                         2.680223       0.367157
                                                         0.791502       0.311480
                                                         0.239116       0.080105
                                                         0.082193       0.033440
                          1       3    3pz              10.068468       0.155326
                                                         2.680223       0.367157
                                                         0.791502       0.311480
                                                         0.239116       0.080105
                                                         0.082193       0.033440

       Atomic covalent radius [Angstrom]:                                  0.320

       Atomic van der Waals radius [Angstrom]:                             1.090

     GTH Potential information for                                    GTH-PBE-q1

       Description:                       Goedecker-Teter-Hutter pseudopotential
                                           Goedecker et al., PRB 54, 1703 (1996)
                                          Hartwigsen et al., PRB 58, 3641 (1998)
                                                      Krack, TCA 114, 145 (2005)

       Gaussian exponent of the core charge distribution:              12.500000
       Electronic configuration (s p d ...):                                   1

       Parameters of the local part of the GTH pseudopotential:

                          rloc        C1          C2          C3          C4
                        0.200000   -4.178900    0.724463

  3. Atomic kind: Na                                    Number of atoms:       1

     Orbital Basis Set                                        DZVP-MOLOPT-SR-GTH

       Number of orbital shell sets:                                           1
       Number of orbital shells:                                               5
       Number of primitive Cartesian functions:                                7
       Number of Cartesian basis functions:                                    9
       Number of spherical basis functions:                                    9
       Norm type:                                                              2

       Normalised Cartesian orbitals:

                        Set   Shell   Orbital            Exponent    Coefficient

                          1       1    2s               23.518801       0.288931
                                                        11.135656       0.787174
                                                         4.647814      -0.190850
                                                         1.866708      -0.573823
                                                         0.734684      -0.276866
                                                         0.275673      -0.024211
                                                         0.049895      -0.000019

                          1       2    3s               23.518801       0.039212
                                                        11.135656       0.138585
                                                         4.647814      -0.048916
                                                         1.866708      -0.102378
                                                         0.734684      -0.139633
                                                         0.275673       0.012767
                                                         0.049895       0.077569

                          1       3    4s               23.518801       0.303698
                                                        11.135656      -0.548845
                                                         4.647814       0.534441
                                                         1.866708      -0.220920
                                                         0.734684       0.980584
                                                         0.275673      -0.653367
                                                         0.049895       0.063703

                          1       4    3px              23.518801      -2.919466
                                                        11.135656      -2.855941
                                                         4.647814      -2.579491
                                                         1.866708      -1.208264
                                                         0.734684      -0.321406
                                                         0.275673      -0.035032
                                                         0.049895      -0.000067
                          1       4    3py              23.518801      -2.919466
                                                        11.135656      -2.855941
                                                         4.647814      -2.579491
                                                         1.866708      -1.208264
                                                         0.734684      -0.321406
                                                         0.275673      -0.035032
                                                         0.049895      -0.000067
                          1       4    3pz              23.518801      -2.919466
                                                        11.135656      -2.855941
                                                         4.647814      -2.579491
                                                         1.866708      -1.208264
                                                         0.734684      -0.321406
                                                         0.275673      -0.035032
                                                         0.049895      -0.000067

                          1       5    4px              23.518801      -0.381914
                                                        11.135656      -0.488169
                                                         4.647814      -0.407378
                                                         1.866708      -0.201739
                                                         0.734684      -0.078845
                                                         0.275673       0.043427
                                                         0.049895       0.031563
                          1       5    4py              23.518801      -0.381914
                                                        11.135656      -0.488169
                                                         4.647814      -0.407378
                                                         1.866708      -0.201739
                                                         0.734684      -0.078845
                                                         0.275673       0.043427
                                                         0.049895       0.031563
                          1       5    4pz              23.518801      -0.381914
                                                        11.135656      -0.488169
                                                         4.647814      -0.407378
                                                         1.866708      -0.201739
                                                         0.734684      -0.078845
                                                         0.275673       0.043427
                                                         0.049895       0.031563

       Atomic covalent radius [Angstrom]:                                  1.540

       Atomic van der Waals radius [Angstrom]:                             2.270

     GTH Potential information for                                    GTH-PBE-q9

       Description:                       Goedecker-Teter-Hutter pseudopotential
                                           Goedecker et al., PRB 54, 1703 (1996)
                                          Hartwigsen et al., PRB 58, 3641 (1998)
                                                      Krack, TCA 114, 145 (2005)

       Gaussian exponent of the core charge distribution:               8.937631
       Electronic configuration (s p d ...):                               3   6

       Parameters of the local part of the GTH pseudopotential:

                          rloc        C1          C2          C3          C4
                        0.236523    0.295105   -0.913885

       Parameters of the non-local part of the GTH pseudopotential:

                   l      r(l)      h(i,j,l)

                   0    0.143560   34.601492
                   1    0.129932  -14.277462


 MOLECULE KIND INFORMATION


 All atoms are their own molecule, skipping detailed information


 TOTAL NUMBERS AND MAXIMUM NUMBERS

  Total number of            - Atomic kinds:                                   3
                             - Atoms:                                        129
                             - Shell sets:                                   129
                             - Shells:                                       613
                             - Primitive Cartesian functions:                647
                             - Cartesian basis functions:                   1657
                             - Spherical basis functions:                   1545

  Maximum angular momentum of- Orbital basis functions:                        2
                             - Local part of the GTH pseudopotential:          2
                             - Non-local part of the GTH pseudopotential:      1


 MODULE QUICKSTEP: ATOMIC COORDINATES IN ANGSTROM

   Atom Kind Element         X             Y             Z       Z(eff)     Mass
      1    1 C     6      8.597040     14.970628      0.043112   4.0000  12.0107
      2    1 C     6      9.825317     15.658979      0.059683   4.0000  12.0107
      3    1 C     6     11.053104     14.971573      0.053452   4.0000  12.0107
      4    1 C     6     12.282477     15.658963      0.047527   4.0000  12.0107
      5    1 C     6     13.509774     14.970678      0.018733   4.0000  12.0107
      6    1 C     6     14.738216     15.658417     -0.020132   4.0000  12.0107
      7    1 C     6     15.966283     14.970840     -0.062139   4.0000  12.0107
      8    1 C     6     17.193371     15.660599     -0.102834   4.0000  12.0107
      9    1 C     6     18.421727     14.972310     -0.129980   4.0000  12.0107
     10    1 C     6     19.650207     15.661136     -0.146544   4.0000  12.0107
     11    1 C     6     20.877807     14.972633     -0.146194   4.0000  12.0107
     12    1 C     6     22.107766     15.659324     -0.136864   4.0000  12.0107
     13    1 C     6     23.335210     14.971160     -0.106765   4.0000  12.0107
     14    1 C     6     24.563023     15.659102     -0.062061   4.0000  12.0107
     15    1 C     6     25.790254     14.971350     -0.020205   4.0000  12.0107
     16    1 C     6     27.017560     15.659102      0.026583   4.0000  12.0107
     17    1 C     6     25.788634     13.520635     -0.034214   4.0000  12.0107
     18    1 C     6     23.332987     13.520468     -0.114925   4.0000  12.0107
     19    1 C     6     20.875265     13.521094     -0.148265   4.0000  12.0107
     20    1 C     6     18.420010     13.519742     -0.127666   4.0000  12.0107
     21    1 C     6     15.965546     13.518644     -0.052223   4.0000  12.0107
     22    1 C     6     14.736135     12.807447     -0.016160   4.0000  12.0107
     23    1 C     6     13.509150     13.519437      0.024410   4.0000  12.0107
     24    1 C     6     12.279076     12.809130      0.045711   4.0000  12.0107
     25    1 C     6     11.051249     13.520191      0.057134   4.0000  12.0107
     26    1 C     6      9.822560     12.807093      0.049310   4.0000  12.0107
     27    1 C     6      8.595397     13.519039      0.040344   4.0000  12.0107
     28    1 C     6      7.365856     12.807790      0.006646   4.0000  12.0107
     29    1 C     6     24.560159     12.809655     -0.073612   4.0000  12.0107
     30    1 C     6     22.103370     12.810916     -0.139429   4.0000  12.0107
     31    1 C     6     19.647078     12.806717     -0.143088   4.0000  12.0107
     32    1 C     6     17.192146     12.805221     -0.094616   4.0000  12.0107
     33    1 C     6     24.555311     11.371606     -0.080103   4.0000  12.0107
     34    1 C     6     23.324676     10.661116     -0.111528   4.0000  12.0107
     35    1 C     6     22.098508     11.373263     -0.133740   4.0000  12.0107
     36    1 C     6     20.872678     10.653312     -0.134764   4.0000  12.0107
     37    1 C     6     19.644650     11.366121     -0.136854   4.0000  12.0107
     38    1 C     6     18.418360     10.645608     -0.115492   4.0000  12.0107
     39    1 C     6     17.190837     11.364376     -0.083790   4.0000  12.0107
     40    1 C     6     15.960860     10.651902     -0.051244   4.0000  12.0107
     41    1 C     6     14.733728     11.368708     -0.011706   4.0000  12.0107
     42    1 C     6     13.501690     10.657463      0.022283   4.0000  12.0107
     43    1 C     6     12.274830     11.370666      0.041807   4.0000  12.0107
     44    1 C     6     11.043972     10.656123      0.045552   4.0000  12.0107
     45    1 C     6      9.816239     11.367904      0.045449   4.0000  12.0107
     46    1 C     6      8.587017     10.652731      0.023066   4.0000  12.0107
     47    1 C     6      7.361781     11.369134     -0.003311   4.0000  12.0107
     48    1 C     6      6.133349     10.655437     -0.040955   4.0000  12.0107
     49    1 C     6      6.130175      9.219389     -0.047750   4.0000  12.0107
     50    1 C     6      7.354698      8.499240     -0.031171   4.0000  12.0107
     51    1 C     6      8.580062      9.218240     -0.001676   4.0000  12.0107
     52    1 C     6      9.809343      8.502240     -0.001810   4.0000  12.0107
     53    1 C     6     11.037727      9.220287      0.028852   4.0000  12.0107
     54    1 C     6     12.265951      8.505579      0.005826   4.0000  12.0107
     55    1 C     6     13.493969      9.224599      0.005896   4.0000  12.0107
     56    1 C     6     14.724625      8.506191     -0.026849   4.0000  12.0107
     57    1 C     6     15.958459      9.216640     -0.043446   4.0000  12.0107
     58    1 C     6     17.188075      8.500741     -0.064564   4.0000  12.0107
     59    1 C     6     18.422609      9.205872     -0.093125   4.0000  12.0107
     60    1 C     6     19.654562      8.494152     -0.090794   4.0000  12.0107
     61    1 C     6     20.874339      9.217594     -0.105983   4.0000  12.0107
     62    1 C     6     22.097978      8.501635     -0.064621   4.0000  12.0107
     63    1 C     6     23.319785      9.230160     -0.087486   4.0000  12.0107
     64    1 C     6     22.097841      7.067091     -0.053989   4.0000  12.0107
     65    1 C     6     20.871210      6.350440     -0.046632   4.0000  12.0107
     66    1 C     6     19.645388      7.062292     -0.068595   4.0000  12.0107
     67    1 C     6     18.414015      6.353783     -0.046449   4.0000  12.0107
     68    1 C     6     17.185653      7.067294     -0.054354   4.0000  12.0107
     69    1 C     6     15.957033      6.354511     -0.045936   4.0000  12.0107
     70    1 C     6     14.728037      7.069974     -0.039463   4.0000  12.0107
     71    1 C     6     13.500326      6.352241     -0.040600   4.0000  12.0107
     72    1 C     6     12.271718      7.067702     -0.027800   4.0000  12.0107
     73    1 C     6     11.043924      6.347955     -0.047820   4.0000  12.0107
     74    1 C     6      9.814220      7.063259     -0.034362   4.0000  12.0107
     75    1 C     6      8.587175      6.344056     -0.056808   4.0000  12.0107
     76    1 C     6      7.358452      7.062084     -0.046104   4.0000  12.0107
     77    1 C     6      6.128728      6.350791     -0.053830   4.0000  12.0107
     78    1 C     6      4.901782      7.070722     -0.053360   4.0000  12.0107
     79    1 C     6      4.900043      8.507847     -0.063648   4.0000  12.0107
     80    1 C     6      3.675770      6.352436     -0.050329   4.0000  12.0107
     81    1 C     6      3.672471      4.914129     -0.032985   4.0000  12.0107
     82    1 C     6      4.896815      4.199200     -0.038999   4.0000  12.0107
     83    1 C     6      6.126625      4.910075     -0.061045   4.0000  12.0107
     84    1 C     6      7.351284      4.191544     -0.093208   4.0000  12.0107
     85    1 C     6      8.585329      4.902348     -0.082919   4.0000  12.0107
     86    1 C     6      9.816671      4.190549     -0.106635   4.0000  12.0107
     87    1 C     6     11.046181      4.905622     -0.077469   4.0000  12.0107
     88    1 C     6     12.278001      4.195124     -0.079187   4.0000  12.0107
     89    1 C     6     13.504339      4.911774     -0.060528   4.0000  12.0107
     90    1 C     6     14.733477      4.201388     -0.048659   4.0000  12.0107
     91    1 C     6     15.959307      4.916144     -0.046230   4.0000  12.0107
     92    1 C     6     17.186611      4.205122     -0.028987   4.0000  12.0107
     93    1 C     6     18.413933      4.916807     -0.036284   4.0000  12.0107
     94    1 C     6     19.639682      4.204669     -0.009576   4.0000  12.0107
     95    1 C     6     20.868074      4.914297     -0.026280   4.0000  12.0107
     96    1 C     6     19.638562      2.755276      0.024573   4.0000  12.0107
     97    1 C     6     18.411942      2.067551      0.029570   4.0000  12.0107
     98    1 C     6     17.185724      2.754825     -0.013258   4.0000  12.0107
     99    1 C     6     15.960477      2.065530     -0.024435   4.0000  12.0107
    100    1 C     6     14.733590      2.750798     -0.045752   4.0000  12.0107
    101    1 C     6     13.507278      2.061475     -0.060080   4.0000  12.0107
    102    1 C     6     12.282455      2.742673     -0.096879   4.0000  12.0107
    103    1 C     6     11.051169      2.049739     -0.133295   4.0000  12.0107
    104    1 C     6      9.818369      2.731808     -0.127219   4.0000  12.0107
    105    1 C     6      8.577198      2.042774     -0.161870   4.0000  12.0107
    106    1 C     6      6.119902      2.058926     -0.049564   4.0000  12.0107
    107    1 C     6      7.342829      2.738081     -0.105132   4.0000  12.0107
    108    1 C     6      4.894874      2.749201     -0.017272   4.0000  12.0107
    109    1 C     6      3.668660      2.064592      0.033738   4.0000  12.0107
    110    1 C     6      2.443521      2.753002      0.029796   4.0000  12.0107
    111    1 C     6      2.445039      4.202128     -0.009739   4.0000  12.0107
    112    1 C     6      1.215942      2.066862      0.052664   4.0000  12.0107
    113    2 H     1     27.018112     16.745266      0.035069   1.0000   1.0079
    114    2 H     1     24.564549     16.745324     -0.052121   1.0000   1.0079
    115    2 H     1     22.110012     16.745710     -0.133773   1.0000   1.0079
    116    2 H     1     17.193778     16.747140     -0.103640   1.0000   1.0079
    117    2 H     1     14.738499     16.744990     -0.025415   1.0000   1.0079
    118    2 H     1     12.283741     16.745391      0.045065   1.0000   1.0079
    119    2 H     1      9.826797     16.745292      0.059633   1.0000   1.0079
    120    2 H     1      1.214478      0.980947      0.082011   1.0000   1.0079
    121    2 H     1      3.665503      0.978777      0.063226   1.0000   1.0079
    122    2 H     1      6.112854      0.972428     -0.032813   1.0000   1.0079
    123    2 H     1      8.573064      0.960591     -0.022656   1.0000   1.0079
    124    2 H     1     11.058209      0.962700     -0.051996   1.0000   1.0079
    125    2 H     1     13.512780      0.974907     -0.049267   1.0000   1.0079
    126    2 H     1     15.962150      0.979207     -0.012011   1.0000   1.0079
    127    2 H     1     18.411539      0.981356      0.052595   1.0000   1.0079
    128    2 H     1     19.652055     16.747530     -0.144871   1.0000   1.0079
    129    3 Na   11      9.528501      1.738665     -2.545973   9.0000  22.9898



 SCF PARAMETERS         Density guess:                                    ATOMIC
                        --------------------------------------------------------
                        max_scf:                                             400
                        max_scf_history:                                       0
                        max_diis:                                              4
                        --------------------------------------------------------
                        eps_scf:                                        3.00E-07
                        eps_scf_history:                                0.00E+00
                        eps_diis:                                       1.00E-01
                        eps_eigval:                                     1.00E-05
                        --------------------------------------------------------
                        level_shift [a.u.]:                             0.000000
                        added MOs                                       100  100
                        --------------------------------------------------------
                        Mixing method:                            BROYDEN_MIXING
                                                charge density mixing in g-space
                        --------------------------------------------------------
                        Smear method:                                FERMI_DIRAC
                        Electronic temperature [K]:                        300.0
                        Electronic temperature [a.u.]:                  9.50E-04
                        Accuracy threshold:                             1.00E-10
                        --------------------------------------------------------
                        Outer loop SCF in use 
                        No variables optimised in outer loop
                        eps_scf                                         1.00E-06
                        max_scf                                              100
                        DIIS optimization
                        DIIS buffer length                                     3
                        step_size                                       5.00E-01

 PW_GRID| Information for grid number                                          1
 PW_GRID| Grid distributed over                                    16 processors
 PW_GRID| Real space group dimensions                                    16    1
 PW_GRID| the grid is blocked:                                                NO
 PW_GRID| Cutoff [a.u.]                                                    150.0
 PW_GRID| spherical cutoff:                                                   NO
 PW_GRID|   Bounds   1           -108     107                Points:         216
 PW_GRID|   Bounds   2           -216     215                Points:         432
 PW_GRID|   Bounds   3           -108     107                Points:         216
 PW_GRID| Volume element (a.u.^3)  0.4558E-02     Volume (a.u.^3)     91861.9320
 PW_GRID| Grid span                                                    FULLSPACE
 PW_GRID|   Distribution                         Average         Max         Min
 PW_GRID|   G-Vectors                          1259712.0     1259712     1259712
 PW_GRID|   G-Rays                                5832.0        5832        5832
 PW_GRID|   Real Space Points                  1259712.0     1306368     1213056

 PW_GRID| Information for grid number                                          2
 PW_GRID| Number of the reference grid                                         1
 PW_GRID| Grid distributed over                                    16 processors
 PW_GRID| Real space group dimensions                                    16    1
 PW_GRID| the grid is blocked:                                                NO
 PW_GRID| Cutoff [a.u.]                                                     50.0
 PW_GRID| spherical cutoff:                                                   NO
 PW_GRID|   Bounds   1            -60      59                Points:         120
 PW_GRID|   Bounds   2           -121     121                Points:         243
 PW_GRID|   Bounds   3            -62      62                Points:         125
 PW_GRID| Volume element (a.u.^3)  0.2520E-01     Volume (a.u.^3)     91861.9320
 PW_GRID| Grid span                                                    FULLSPACE
 PW_GRID|   Distribution                         Average         Max         Min
 PW_GRID|   G-Vectors                           227812.5      228960      226320
 PW_GRID|   G-Rays                                1898.4        1908        1886
 PW_GRID|   Real Space Points                   227812.5      243000      212625

 PW_GRID| Information for grid number                                          3
 PW_GRID| Number of the reference grid                                         1
 PW_GRID| Grid distributed over                                    16 processors
 PW_GRID| Real space group dimensions                                    16    1
 PW_GRID| the grid is blocked:                                                NO
 PW_GRID| Cutoff [a.u.]                                                     16.7
 PW_GRID| spherical cutoff:                                                   NO
 PW_GRID|   Bounds   1            -36      35                Points:          72
 PW_GRID|   Bounds   2            -72      71                Points:         144
 PW_GRID|   Bounds   3            -36      35                Points:          72
 PW_GRID| Volume element (a.u.^3)  0.1231         Volume (a.u.^3)     91861.9320
 PW_GRID| Grid span                                                    FULLSPACE
 PW_GRID|   Distribution                         Average         Max         Min
 PW_GRID|   G-Vectors                            46656.0       46944       46512
 PW_GRID|   G-Rays                                 648.0         652         646
 PW_GRID|   Real Space Points                    46656.0       51840       41472

 PW_GRID| Information for grid number                                          4
 PW_GRID| Number of the reference grid                                         1
 PW_GRID| Grid distributed over                                    16 processors
 PW_GRID| Real space group dimensions                                    16    1
 PW_GRID| the grid is blocked:                                                NO
 PW_GRID| Cutoff [a.u.]                                                      5.6
 PW_GRID| spherical cutoff:                                                   NO
 PW_GRID|   Bounds   1            -20      19                Points:          40
 PW_GRID|   Bounds   2            -40      40                Points:          81
 PW_GRID|   Bounds   3            -22      22                Points:          45
 PW_GRID| Volume element (a.u.^3)  0.6301         Volume (a.u.^3)     91861.9320
 PW_GRID| Grid span                                                    FULLSPACE
 PW_GRID|   Distribution                         Average         Max         Min
 PW_GRID|   G-Vectors                             9112.5        9240        9000
 PW_GRID|   G-Rays                                 227.8         231         225
 PW_GRID|   Real Space Points                     9112.5       10935        7290

 POISSON| Solver                                                        PERIODIC
 POISSON| Periodicity                                                        XYZ

 RS_GRID| Information for grid number                                          1
 RS_GRID|   Bounds   1           -108     107                Points:         216
 RS_GRID|   Bounds   2           -216     215                Points:         432
 RS_GRID|   Bounds   3           -108     107                Points:         216
 RS_GRID| Real space distribution over                                 16 groups
 RS_GRID| Real space distribution along direction                              2
 RS_GRID| Border size                                                         35
 RS_GRID|   Distribution                         Average         Max         Min
 RS_GRID|   Planes                                  97.0          97          97

 RS_GRID| Information for grid number                                          2
 RS_GRID|   Bounds   1            -60      59                Points:         120
 RS_GRID|   Bounds   2           -121     121                Points:         243
 RS_GRID|   Bounds   3            -62      62                Points:         125
 RS_GRID| Real space distribution over                                 16 groups
 RS_GRID| Real space distribution along direction                              2
 RS_GRID| Border size                                                         35
 RS_GRID|   Distribution                         Average         Max         Min
 RS_GRID|   Planes                                  85.2          86          85

 RS_GRID| Information for grid number                                          3
 RS_GRID|   Bounds   1            -36      35                Points:          72
 RS_GRID|   Bounds   2            -72      71                Points:         144
 RS_GRID|   Bounds   3            -36      35                Points:          72
 RS_GRID| Real space fully replicated
 RS_GRID| Group size                                                           1

 RS_GRID| Information for grid number                                          4
 RS_GRID|   Bounds   1            -20      19                Points:          40
 RS_GRID|   Bounds   2            -40      40                Points:          81
 RS_GRID|   Bounds   3            -22      22                Points:          45
 RS_GRID| Real space fully replicated
 RS_GRID| Group size                                                           1

 -------------------------------------------------------------------------------
 -                                                                             -
 -  BSSE CALCULATION         FRAGMENT CONF: 11        FRAGMENT SUBCONF: 10     -
 -                           CHARGE =     0           MULTIPLICITY =     0     -
 -                                                                             -
 -                 ATOM INDEX                              ATOM NAME           -
 -                 ----------                              ---------           -
 -                      1                                   C                  -
 -                      2                                   C                  -
 -                      3                                   C                  -
 -                      4                                   C                  -
 -                      5                                   C                  -
 -                      6                                   C                  -
 -                      7                                   C                  -
 -                      8                                   C                  -
 -                      9                                   C                  -
 -                     10                                   C                  -
 -                     11                                   C                  -
 -                     12                                   C                  -
 -                     13                                   C                  -
 -                     14                                   C                  -
 -                     15                                   C                  -
 -                     16                                   C                  -
 -                     17                                   C                  -
 -                     18                                   C                  -
 -                     19                                   C                  -
 -                     20                                   C                  -
 -                     21                                   C                  -
 -                     22                                   C                  -
 -                     23                                   C                  -
 -                     24                                   C                  -
 -                     25                                   C                  -
 -                     26                                   C                  -
 -                     27                                   C                  -
 -                     28                                   C                  -
 -                     29                                   C                  -
 -                     30                                   C                  -
 -                     31                                   C                  -
 -                     32                                   C                  -
 -                     33                                   C                  -
 -                     34                                   C                  -
 -                     35                                   C                  -
 -                     36                                   C                  -
 -                     37                                   C                  -
 -                     38                                   C                  -
 -                     39                                   C                  -
 -                     40                                   C                  -
 -                     41                                   C                  -
 -                     42                                   C                  -
 -                     43                                   C                  -
 -                     44                                   C                  -
 -                     45                                   C                  -
 -                     46                                   C                  -
 -                     47                                   C                  -
 -                     48                                   C                  -
 -                     49                                   C                  -
 -                     50                                   C                  -
 -                     51                                   C                  -
 -                     52                                   C                  -
 -                     53                                   C                  -
 -                     54                                   C                  -
 -                     55                                   C                  -
 -                     56                                   C                  -
 -                     57                                   C                  -
 -                     58                                   C                  -
 -                     59                                   C                  -
 -                     60                                   C                  -
 -                     61                                   C                  -
 -                     62                                   C                  -
 -                     63                                   C                  -
 -                     64                                   C                  -
 -                     65                                   C                  -
 -                     66                                   C                  -
 -                     67                                   C                  -
 -                     68                                   C                  -
 -                     69                                   C                  -
 -                     70                                   C                  -
 -                     71                                   C                  -
 -                     72                                   C                  -
 -                     73                                   C                  -
 -                     74                                   C                  -
 -                     75                                   C                  -
 -                     76                                   C                  -
 -                     77                                   C                  -
 -                     78                                   C                  -
 -                     79                                   C                  -
 -                     80                                   C                  -
 -                     81                                   C                  -
 -                     82                                   C                  -
 -                     83                                   C                  -
 -                     84                                   C                  -
 -                     85                                   C                  -
 -                     86                                   C                  -
 -                     87                                   C                  -
 -                     88                                   C                  -
 -                     89                                   C                  -
 -                     90                                   C                  -
 -                     91                                   C                  -
 -                     92                                   C                  -
 -                     93                                   C                  -
 -                     94                                   C                  -
 -                     95                                   C                  -
 -                     96                                   C                  -
 -                     97                                   C                  -
 -                     98                                   C                  -
 -                     99                                   C                  -
 -                    100                                   C                  -
 -                    101                                   C                  -
 -                    102                                   C                  -
 -                    103                                   C                  -
 -                    104                                   C                  -
 -                    105                                   C                  -
 -                    106                                   C                  -
 -                    107                                   C                  -
 -                    108                                   C                  -
 -                    109                                   C                  -
 -                    110                                   C                  -
 -                    111                                   C                  -
 -                    112                                   C                  -
 -                    113                                   H                  -
 -                    114                                   H                  -
 -                    115                                   H                  -
 -                    116                                   H                  -
 -                    117                                   H                  -
 -                    118                                   H                  -
 -                    119                                   H                  -
 -                    120                                   H                  -
 -                    121                                   H                  -
 -                    122                                   H                  -
 -                    123                                   H                  -
 -                    124                                   H                  -
 -                    125                                   H                  -
 -                    126                                   H                  -
 -                    127                                   H                  -
 -                    128                                   H                  -
 -                    129                                   Na_ghost           -
 -------------------------------------------------------------------------------

 CELL| Volume [angstrom^3]:                                         13612.533707
 CELL| Vector a [angstrom]:      19.648     0.000     0.000   |a| =    19.648000
 CELL| Vector b [angstrom]:      20.000    34.641     0.000   |b| =    40.000000
 CELL| Vector c [angstrom]:       0.000     0.000    20.000   |c| =    20.000000
 CELL| Angle (b,c), alpha [degree]:                                    90.000000
 CELL| Angle (a,c), beta  [degree]:                                    90.000000
 CELL| Angle (a,b), gamma [degree]:                                    60.000000
 CELL| Requested initial symmetry:                                     TRICLINIC
 CELL| Numerically orthorhombic:                                              NO
 CELL| Periodicity                                                           XYZ

 CELL_REF| Volume [angstrom^3]:                                     13612.533707
 CELL_REF| Vector a [angstrom    19.648     0.000     0.000   |a| =    19.648000
 CELL_REF| Vector b [angstrom    20.000    34.641     0.000   |b| =    40.000000
 CELL_REF| Vector c [angstrom     0.000     0.000    20.000   |c| =    20.000000
 CELL_REF| Angle (b,c), alpha [degree]:                                90.000000
 CELL_REF| Angle (a,c), beta  [degree]:                                90.000000
 CELL_REF| Angle (a,b), gamma [degree]:                                60.000000
 CELL_REF| Requested initial symmetry:                                 TRICLINIC
 CELL_REF| Numerically orthorhombic:                                          NO
 CELL_REF| Periodicity                                                       XYZ

 *******************************************************************************
 *******************************************************************************
 **                                                                           **
 **     #####                         ##              ##                      **
 **    ##   ##            ##          ##              ##                      **
 **   ##     ##                       ##            ######                    **
 **   ##     ##  ##   ##  ##   #####  ##  ##   ####   ##    #####    #####    **
 **   ##     ##  ##   ##  ##  ##      ## ##   ##      ##   ##   ##  ##   ##   **
 **   ##  ## ##  ##   ##  ##  ##      ####     ###    ##   ######   ######    **
 **    ##  ###   ##   ##  ##  ##      ## ##      ##   ##   ##       ##        **
 **     #######   #####   ##   #####  ##  ##  ####    ##    #####   ##        **
 **           ##                                                    ##        **
 **                                                                           **
 **                                                ... make the atoms dance   **
 **                                                                           **
 **            Copyright (C) by CP2K developers group (2000-2022)             **
 **                      J. Chem. Phys. 152, 194103 (2020)                    **
 **                                                                           **
 *******************************************************************************

 DFT| Spin unrestricted (spin-polarized) Kohn-Sham calculation               UKS
 DFT| Multiplicity                                                             1
 DFT| Number of spin states                                                    2
 DFT| Charge                                                                   0
 DFT| Self-interaction correction (SIC)                                       NO
 DFT| Cutoffs: density                                              1.000000E-10
 DFT|          gradient                                             1.000000E-10
 DFT|          tau                                                  1.000000E-10
 DFT|          cutoff_smoothing_range                               0.000000E+00
 DFT| XC density smoothing                                                  NONE
 DFT| XC derivatives                                              SPLINE2_SMOOTH

 FUNCTIONAL| PBE:
 FUNCTIONAL| J.P.Perdew, K.Burke, M.Ernzerhof, Phys. Rev. Letter, vol. 77, n 18,
 FUNCTIONAL|  pp. 3865-3868, (1996){spin polarized}                             

 vdW POTENTIAL|                                                   Pair Potential
 vdW POTENTIAL|          DFT-D3 (Version 3.1)
 vdW POTENTIAL|          Potential Form: S. Grimme et al, JCP 132: 154104 (2010)
 vdW POTENTIAL|          Zero Damping
 vdW POTENTIAL|          Cutoff Radius [Bohr]:                             20.00
 vdW POTENTIAL|          s6 Scaling Factor:                               1.0000
 vdW POTENTIAL|          sr6 Scaling Factor:                              1.2170
 vdW POTENTIAL|          s8 Scaling Factor:                               0.7220
 vdW POTENTIAL|          Cutoff for CN calculation:                   0.1000E-05

 QS| Method:                                                                 GPW
 QS| Density plane wave grid type                        NON-SPHERICAL FULLSPACE
 QS| Number of grid levels:                                                    4
 QS| Density cutoff [a.u.]:                                                150.0
 QS| Multi grid cutoff [a.u.]: 1) grid level                               150.0
 QS|                           2) grid level                                50.0
 QS|                           3) grid level                                16.7
 QS|                           4) grid level                                 5.6
 QS| Grid level progression factor:                                          3.0
 QS| Relative density cutoff [a.u.]:                                        20.0
 QS| Interaction thresholds: eps_pgf_orb:                                1.0E-06
 QS|                         eps_filter_matrix:                          0.0E+00
 QS|                         eps_core_charge:                            1.0E-14
 QS|                         eps_rho_gspace:                             1.0E-12
 QS|                         eps_rho_rspace:                             1.0E-12
 QS|                         eps_gvg_rspace:                             1.0E-06
 QS|                         eps_ppl:                                    1.0E-02
 QS|                         eps_ppnl:                                   1.0E-08


 ATOMIC KIND INFORMATION

  1. Atomic kind: C                                     Number of atoms:     112

     Orbital Basis Set                                        DZVP-MOLOPT-SR-GTH

       Number of orbital shell sets:                                           1
       Number of orbital shells:                                               5
       Number of primitive Cartesian functions:                                5
       Number of Cartesian basis functions:                                   14
       Number of spherical basis functions:                                   13
       Norm type:                                                              2

       Normalised Cartesian orbitals:

                        Set   Shell   Orbital            Exponent    Coefficient

                          1       1    2s                5.605331       0.322515
                                                         2.113016       0.213043
                                                         0.769911      -0.209686
                                                         0.348157      -0.219794
                                                         0.128212      -0.022789

                          1       2    3s                5.605331       0.552234
                                                         2.113016       0.082072
                                                         0.769911       0.007843
                                                         0.348157       0.136893
                                                         0.128212       0.074283

                          1       3    3px               5.605331      -0.703879
                                                         2.113016      -0.642521
                                                         0.769911      -0.374851
                                                         0.348157      -0.139743
                                                         0.128212      -0.027849
                          1       3    3py               5.605331      -0.703879
                                                         2.113016      -0.642521
                                                         0.769911      -0.374851
                                                         0.348157      -0.139743
                                                         0.128212      -0.027849
                          1       3    3pz               5.605331      -0.703879
                                                         2.113016      -0.642521
                                                         0.769911      -0.374851
                                                         0.348157      -0.139743
                                                         0.128212      -0.027849

                          1       4    4px               5.605331      -0.480376
                                                         2.113016      -0.552894
                                                         0.769911      -0.316145
                                                         0.348157       0.210505
                                                         0.128212       0.076095
                          1       4    4py               5.605331      -0.480376
                                                         2.113016      -0.552894
                                                         0.769911      -0.316145
                                                         0.348157       0.210505
                                                         0.128212       0.076095
                          1       4    4pz               5.605331      -0.480376
                                                         2.113016      -0.552894
                                                         0.769911      -0.316145
                                                         0.348157       0.210505
                                                         0.128212       0.076095

                          1       5    4dx2              5.605331       0.640026
                                                         2.113016       0.274300
                                                         0.769911       0.446711
                                                         0.348157       0.028674
                                                         0.128212       0.029790
                          1       5    4dxy              5.605331       1.108557
                                                         2.113016       0.475102
                                                         0.769911       0.773726
                                                         0.348157       0.049666
                                                         0.128212       0.051599
                          1       5    4dxz              5.605331       1.108557
                                                         2.113016       0.475102
                                                         0.769911       0.773726
                                                         0.348157       0.049666
                                                         0.128212       0.051599
                          1       5    4dy2              5.605331       0.640026
                                                         2.113016       0.274300
                                                         0.769911       0.446711
                                                         0.348157       0.028674
                                                         0.128212       0.029790
                          1       5    4dyz              5.605331       1.108557
                                                         2.113016       0.475102
                                                         0.769911       0.773726
                                                         0.348157       0.049666
                                                         0.128212       0.051599
                          1       5    4dz2              5.605331       0.640026
                                                         2.113016       0.274300
                                                         0.769911       0.446711
                                                         0.348157       0.028674
                                                         0.128212       0.029790

       Atomic covalent radius [Angstrom]:                                  0.770

       Atomic van der Waals radius [Angstrom]:                             1.700

     GTH Potential information for                                    GTH-PBE-q4

       Description:                       Goedecker-Teter-Hutter pseudopotential
                                           Goedecker et al., PRB 54, 1703 (1996)
                                          Hartwigsen et al., PRB 58, 3641 (1998)
                                                      Krack, TCA 114, 145 (2005)

       Gaussian exponent of the core charge distribution:               4.364419
[...]
     2 Broy./Diag. 0.10E+00    9.1     0.04632101      -694.3882510567 -3.57E-02
     3 Broy./Diag. 0.10E+00    9.1     0.00564134      -694.3535782898  3.47E-02
     4 Broy./Diag. 0.10E+00    9.1     0.01213195      -694.3576320685 -4.05E-03
     5 Broy./Diag. 0.10E+00    9.1     0.02490338      -694.3473491455  1.03E-02
     6 Broy./Diag. 0.10E+00    9.1     0.04836678      -694.3556447882 -8.30E-03
     7 Broy./Diag. 0.10E+00    9.1     0.00875612      -694.3753359261 -1.97E-02
     8 Broy./Diag. 0.10E+00    9.1     0.00782531      -694.3716038578  3.73E-03
     9 Broy./Diag. 0.10E+00    9.1     0.03098231      -694.3719810567 -3.77E-04
    10 Broy./Diag. 0.10E+00    9.1     0.02043115      -694.3664400530  5.54E-03
    11 Broy./Diag. 0.10E+00    9.1     0.02017068      -694.3729565460 -6.52E-03
    12 Broy./Diag. 0.10E+00    9.1     0.01952446      -694.3660204866  6.94E-03
    13 Broy./Diag. 0.10E+00    9.1     0.00438778      -694.3742442071 -8.22E-03
    14 Broy./Diag. 0.10E+00    9.1     0.06220882      -694.3785401161 -4.30E-03
    15 Broy./Diag. 0.10E+00    9.1     0.00858908      -694.3549405767  2.36E-02
    16 Broy./Diag. 0.10E+00    9.1     0.01152232      -694.3500099331  4.93E-03
    17 Broy./Diag. 0.10E+00    9.1     0.01784071      -694.3547220982 -4.71E-03
    18 Broy./Diag. 0.10E+00    9.1     0.01032601      -694.3620265623 -7.30E-03
    19 Broy./Diag. 0.10E+00    9.1     0.02057914      -694.3662882262 -4.26E-03
    20 Broy./Diag. 0.10E+00    9.1     0.00729989      -694.3599218726  6.37E-03
    21 Broy./Diag. 0.10E+00    9.1     0.02881342      -694.3622866031 -2.36E-03
    22 Broy./Diag. 0.10E+00    9.1     0.00725306      -694.3745409753 -1.23E-02
    23 Broy./Diag. 0.10E+00    9.1     0.01020913      -694.3764676661 -1.93E-03
    24 Broy./Diag. 0.10E+00    9.1     0.03274799      -694.3738499468  2.62E-03
    25 Broy./Diag. 0.10E+00    9.1     0.04611980      -694.3840800217 -1.02E-02
    26 Broy./Diag. 0.10E+00    9.1     0.02290742      -694.3685749590  1.55E-02
    27 Broy./Diag. 0.10E+00    9.1     0.01566253      -694.3589592989  9.62E-03
    28 Broy./Diag. 0.10E+00    9.1     0.01113237      -694.3571811753  1.78E-03
    29 Broy./Diag. 0.10E+00    9.1     0.03518859      -694.3639996540 -6.82E-03
    30 Broy./Diag. 0.10E+00    9.1     0.05772988      -694.3414274884  2.26E-02
    31 Broy./Diag. 0.10E+00    9.1     0.02832225      -694.3673116849 -2.59E-02
    32 Broy./Diag. 0.10E+00    9.1     0.01934320      -694.3747212852 -7.41E-03
    33 Broy./Diag. 0.10E+00    9.1     0.00994834      -694.3703577673  4.36E-03
    34 Broy./Diag. 0.10E+00    9.1     0.00245132      -694.3674582752  2.90E-03
    35 Broy./Diag. 0.10E+00    9.1     0.01134417      -694.3683539090 -8.96E-04
    36 Broy./Diag. 0.10E+00    9.1     0.00274116      -694.3660768188  2.28E-03
    37 Broy./Diag. 0.10E+00    9.1     0.02016775      -694.3686556085 -2.58E-03
    38 Broy./Diag. 0.10E+00    9.1     0.00977733      -694.3662695390  2.39E-03
    39 Broy./Diag. 0.10E+00    9.1     0.05860568      -694.3650811302  1.19E-03
    40 Broy./Diag. 0.10E+00    9.1     0.00246560      -694.3541985197  1.09E-02
    41 Broy./Diag. 0.10E+00    9.1     0.00936075      -694.3542153193 -1.68E-05
    42 Broy./Diag. 0.10E+00    9.1     0.03826488      -694.3562267119 -2.01E-03
    43 Broy./Diag. 0.10E+00    9.1     0.02196188      -694.3727473979 -1.65E-02
    44 Broy./Diag. 0.10E+00    9.1     0.00684530      -694.3802856512 -7.54E-03
    45 Broy./Diag. 0.10E+00    9.1     0.03029733      -694.3812768872 -9.91E-04
    46 Broy./Diag. 0.10E+00    9.1     0.01548097      -694.3711162594  1.02E-02
    47 Broy./Diag. 0.10E+00    9.1     0.00367874      -694.3637444513  7.37E-03
    48 Broy./Diag. 0.10E+00    9.1     0.00230456      -694.3627189732  1.03E-03
    49 Broy./Diag. 0.10E+00    9.1     0.00955074      -694.3622707014  4.48E-04
    50 Broy./Diag. 0.10E+00    9.1     0.00997488      -694.3673446124 -5.07E-03
    51 Broy./Diag. 0.10E+00    9.1     0.00833941      -694.3625590932  4.79E-03
    52 Broy./Diag. 0.10E+00    9.1     0.01837551      -694.3562238198  6.34E-03
    53 Broy./Diag. 0.10E+00    9.1     0.02326737      -694.3630663822 -6.84E-03
    54 Broy./Diag. 0.10E+00    9.1     0.02538786      -694.3590974768  3.97E-03
    55 Broy./Diag. 0.10E+00    9.1     0.02122868      -694.3492796817  9.82E-03
    56 Broy./Diag. 0.10E+00    9.1     0.01084362      -694.3573464954 -8.07E-03
    57 Broy./Diag. 0.10E+00    9.1     0.01262203      -694.3627729306 -5.43E-03
    58 Broy./Diag. 0.10E+00    9.1     0.00664200      -694.3580317579  4.74E-03
    59 Broy./Diag. 0.10E+00    9.1     0.02673106      -694.3621776035 -4.15E-03
    60 Broy./Diag. 0.10E+00    9.1     0.02319190      -694.3495441177  1.26E-02
    61 Broy./Diag. 0.10E+00    9.1     0.00335888      -694.3592708134 -9.73E-03
    62 Broy./Diag. 0.10E+00    9.1     0.04954689      -694.3547990863  4.47E-03
    63 Broy./Diag. 0.10E+00    9.1     0.02360545      -694.3718494393 -1.71E-02
    64 Broy./Diag. 0.10E+00    9.1     0.02308676      -694.3667410998  5.11E-03
    65 Broy./Diag. 0.10E+00    9.1     0.02922931      -694.3713781942 -4.64E-03
    66 Broy./Diag. 0.10E+00    9.1     0.02746783      -694.3769316495 -5.55E-03
    67 Broy./Diag. 0.10E+00    9.1     0.00968931      -694.3692483037  7.68E-03
    68 Broy./Diag. 0.10E+00    9.1     0.00076778      -694.3659194118  3.33E-03
    69 Broy./Diag. 0.10E+00    9.1     0.03698251      -694.3679002130 -1.98E-03
    70 Broy./Diag. 0.10E+00    9.1     0.01428879      -694.3521991226  1.57E-02
    71 Broy./Diag. 0.10E+00    9.1     0.04004790      -694.3434660229  8.73E-03
    72 Broy./Diag. 0.10E+00    9.1     0.02104417      -694.3616140509 -1.81E-02
    73 Broy./Diag. 0.10E+00    9.1     0.03458049      -694.3662736197 -4.66E-03
    74 Broy./Diag. 0.10E+00    9.1     0.04356430      -694.3457207428  2.06E-02
    75 Broy./Diag. 0.10E+00    9.1     0.01619395      -694.3640649223 -1.83E-02
    76 Broy./Diag. 0.10E+00    9.1     0.00726917      -694.3700220553 -5.96E-03
    77 Broy./Diag. 0.10E+00    9.1     0.04453960      -694.3749418727 -4.92E-03
    78 Broy./Diag. 0.10E+00    9.1     0.03099182      -694.3611486437  1.38E-02
    79 Broy./Diag. 0.10E+00    9.1     0.04471426      -694.3724121215 -1.13E-02
    80 Broy./Diag. 0.10E+00    9.1     0.13451335      -694.3581823947  1.42E-02
    81 Broy./Diag. 0.10E+00    9.1     0.06268431      -694.3873837736 -2.92E-02
    82 Broy./Diag. 0.10E+00    9.1     0.13060911      -694.3912216648 -3.84E-03
    83 Broy./Diag. 0.10E+00    9.1     0.02953444      -694.3707553646  2.05E-02
    84 Broy./Diag. 0.10E+00    9.1     0.03406720      -694.3596977212  1.11E-02
    85 Broy./Diag. 0.10E+00    9.1     0.04554934      -694.3680259368 -8.33E-03
    86 Broy./Diag. 0.10E+00    9.1     0.05321800      -694.3674406163  5.85E-04
    87 Broy./Diag. 0.10E+00    9.1     0.02176577      -694.3569645298  1.05E-02
    88 Broy./Diag. 0.10E+00   11.0     0.05587804      -694.3500425295  6.92E-03
    89 Broy./Diag. 0.10E+00    9.1     0.01053573      -694.3648119957 -1.48E-02
    90 Broy./Diag. 0.10E+00    9.1     0.01569483      -694.3589523233  5.86E-03
    91 Broy./Diag. 0.10E+00    9.1     0.02738004      -694.3685353594 -9.58E-03
    92 Broy./Diag. 0.10E+00    9.1     0.00426419      -694.3682240753  3.11E-04
    93 Broy./Diag. 0.10E+00    9.1     0.00072766      -694.3675762641  6.48E-04
    94 Broy./Diag. 0.10E+00    9.1     0.04677940      -694.3676706601 -9.44E-05
    95 Broy./Diag. 0.10E+00    9.1     0.03786740      -694.3654475590  2.22E-03
    96 Broy./Diag. 0.10E+00    9.1     0.04091863      -694.3505548472  1.49E-02
    97 Broy./Diag. 0.10E+00    9.1     0.00733896      -694.3653232129 -1.48E-02
    98 Broy./Diag. 0.10E+00    9.1     0.02747307      -694.3637698975  1.55E-03
    99 Broy./Diag. 0.10E+00    9.1     0.01328702      -694.3592507876  4.52E-03
   100 Broy./Diag. 0.10E+00    9.1     0.08177054      -694.3716361497 -1.24E-02
   101 Broy./Diag. 0.10E+00    9.1     0.02783067      -694.3355475669  3.61E-02
   102 Broy./Diag. 0.10E+00    9.1     0.03171395      -694.3537962536 -1.82E-02
   103 Broy./Diag. 0.10E+00    9.1     0.00932886      -694.3342852106  1.95E-02
   104 Broy./Diag. 0.10E+00    9.1     0.00484846      -694.3391882459 -4.90E-03
   105 Broy./Diag. 0.10E+00    9.1     0.06907045      -694.3326448019  6.54E-03
   106 Broy./Diag. 0.10E+00    9.1     0.01474793      -694.3577476000 -2.51E-02
   107 Broy./Diag. 0.10E+00    9.1     0.01411460      -694.3642021835 -6.45E-03
   108 Broy./Diag. 0.10E+00    9.1     0.01258705      -694.3643923689 -1.90E-04
   109 Broy./Diag. 0.10E+00    9.1     0.03637074      -694.3663932257 -2.00E-03
   110 Broy./Diag. 0.10E+00    9.1     0.01175287      -694.3552691448  1.11E-02
   111 Broy./Diag. 0.10E+00    9.1     0.00384767      -694.3575169764 -2.25E-03
   112 Broy./Diag. 0.10E+00    9.1     0.00756220      -694.3573134597  2.04E-04
   113 Broy./Diag. 0.10E+00    9.1     0.00467779      -694.3581373351 -8.24E-04
   114 Broy./Diag. 0.10E+00    9.1     0.05375254      -694.3582706492 -1.33E-04
   115 Broy./Diag. 0.10E+00    9.1     0.02068279      -694.3444950052  1.38E-02
   116 Broy./Diag. 0.10E+00    9.1     0.04065868      -694.3513582116 -6.86E-03
   117 Broy./Diag. 0.10E+00    9.1     0.07858654      -694.3747801969 -2.34E-02
   118 Broy./Diag. 0.10E+00    9.1     0.00313331      -694.3440718382  3.07E-02
   119 Broy./Diag. 0.10E+00    9.1     0.00669516      -694.3441562154 -8.44E-05
   120 Broy./Diag. 0.10E+00    9.1     0.01251334      -694.3414236019  2.73E-03
   121 Broy./Diag. 0.10E+00    9.1     0.01248519      -694.3405866817  8.37E-04
   122 Broy./Diag. 0.10E+00    9.1     0.02931403      -694.3353798299  5.21E-03
   123 Broy./Diag. 0.10E+00    9.1     0.00947896      -694.3425243770 -7.14E-03
   124 Broy./Diag. 0.10E+00    9.1     0.00501497      -694.3465122147 -3.99E-03
   125 Broy./Diag. 0.10E+00    9.1     0.03352587      -694.3464806070  3.16E-05
   126 Broy./Diag. 0.10E+00    9.1     0.01815928      -694.3499991134 -3.52E-03
   127 Broy./Diag. 0.10E+00    9.1     0.04417891      -694.3578050489 -7.81E-03
   128 Broy./Diag. 0.10E+00    9.1     0.03977275      -694.3712547086 -1.34E-02
   129 Broy./Diag. 0.10E+00    9.1     0.00630154      -694.3596085899  1.16E-02
   130 Broy./Diag. 0.10E+00    9.1     0.03465453      -694.3584705074  1.14E-03
   131 Broy./Diag. 0.10E+00    9.1     0.01692096      -694.3620008227 -3.53E-03
   132 Broy./Diag. 0.10E+00    9.1     0.05187237      -694.3618876250  1.13E-04
   133 Broy./Diag. 0.10E+00    9.1     0.00919080      -694.3503616351  1.15E-02
   134 Broy./Diag. 0.10E+00    9.1     0.01285512      -694.3487945579  1.57E-03
   135 Broy./Diag. 0.10E+00    9.1     0.01137079      -694.3541420746 -5.35E-03
   136 Broy./Diag. 0.10E+00    9.1     0.00314484      -694.3476696985  6.47E-03
   137 Broy./Diag. 0.10E+00    9.1     0.04342789      -694.3450594391  2.61E-03
   138 Broy./Diag. 0.10E+00    9.1     0.01634092      -694.3642751412 -1.92E-02
   139 Broy./Diag. 0.10E+00    9.1     0.00974320      -694.3609312785  3.34E-03
   140 Broy./Diag. 0.10E+00    9.1     0.01247064      -694.3555674142  5.36E-03
   141 Broy./Diag. 0.10E+00    9.1     0.01345256      -694.3591301389 -3.56E-03
   142 Broy./Diag. 0.10E+00    9.1     0.00148042      -694.3646363717 -5.51E-03
   143 Broy./Diag. 0.10E+00    9.1     0.02037573      -694.3664714027 -1.84E-03
   144 Broy./Diag. 0.10E+00    9.1     0.00856919      -694.3574675715  9.00E-03
   145 Broy./Diag. 0.10E+00    9.1     0.00685727      -694.3534884084  3.98E-03
   146 Broy./Diag. 0.10E+00    9.1     0.03374354      -694.3538288500 -3.40E-04
   147 Broy./Diag. 0.10E+00    9.1     0.00325088      -694.3674184494 -1.36E-02
   148 Broy./Diag. 0.10E+00    9.1     0.00632589      -694.3676355445 -2.17E-04
   149 Broy./Diag. 0.10E+00    9.1     0.00418905      -694.3697726401 -2.14E-03
   150 Broy./Diag. 0.10E+00    9.1     0.01113884      -694.3686454184  1.13E-03
   151 Broy./Diag. 0.10E+00    9.1     0.02577096      -694.3716383264 -2.99E-03
   152 Broy./Diag. 0.10E+00    9.1     0.01629041      -694.3635664227  8.07E-03
   153 Broy./Diag. 0.10E+00    9.1     0.00610049      -694.3549963723  8.57E-03
   154 Broy./Diag. 0.10E+00    9.1     0.00393642      -694.3576632271 -2.67E-03
   155 Broy./Diag. 0.10E+00    9.1     0.01356995      -694.3579428180 -2.80E-04
   156 Broy./Diag. 0.10E+00    9.1     0.00584193      -694.3554931809  2.45E-03
   157 Broy./Diag. 0.10E+00    9.1     0.00475281      -694.3536565935  1.84E-03
   158 Broy./Diag. 0.10E+00    9.1     0.01694043      -694.3541709621 -5.14E-04
   159 Broy./Diag. 0.10E+00    9.1     0.02507731      -694.3599202686 -5.75E-03
   160 Broy./Diag. 0.10E+00    9.1     0.01308062      -694.3690368045 -9.12E-03
   161 Broy./Diag. 0.10E+00    9.1     0.03026774      -694.3743640851 -5.33E-03
   162 Broy./Diag. 0.10E+00    9.1     0.00494068      -694.3620960392  1.23E-02
   163 Broy./Diag. 0.10E+00    9.1     0.00267971      -694.3635102492 -1.41E-03
   164 Broy./Diag. 0.10E+00    9.1     0.01980213      -694.3636389625 -1.29E-04
   165 Broy./Diag. 0.10E+00    9.1     0.01796415      -694.3553917284  8.25E-03
   166 Broy./Diag. 0.10E+00    9.1     0.00972410      -694.3600164882 -4.62E-03
   167 Broy./Diag. 0.10E+00    9.1     0.00433318      -694.3637864357 -3.77E-03
   168 Broy./Diag. 0.10E+00    9.1     0.00096234      -694.3621428799  1.64E-03
   169 Broy./Diag. 0.10E+00    9.1     0.00530111      -694.3621437443 -8.64E-07
   170 Broy./Diag. 0.10E+00    9.1     0.00206827      -694.3621726822 -2.89E-05
   171 Broy./Diag. 0.10E+00    9.1     0.00634051      -694.3617067820  4.66E-04
   172 Broy./Diag. 0.10E+00    9.1     0.02198649      -694.3625013980 -7.95E-04
   173 Broy./Diag. 0.10E+00    9.1     0.01639893      -694.3712140619 -8.71E-03
   174 Broy./Diag. 0.10E+00    9.1     0.03762877      -694.3681887579  3.03E-03
   175 Broy./Diag. 0.10E+00    9.1     0.03754549      -694.3488010195  1.94E-02
   176 Broy./Diag. 0.10E+00    9.1     0.04763202      -694.3660743794 -1.73E-02
   177 Broy./Diag. 0.10E+00    9.1     0.00555437      -694.3796619942 -1.36E-02
   178 Broy./Diag. 0.10E+00    9.1     0.01120181      -694.3796509962  1.10E-05
   179 Broy./Diag. 0.10E+00    9.1     0.00401774      -694.3784380147  1.21E-03
   180 Broy./Diag. 0.10E+00    9.1     0.01985535      -694.3785109470 -7.29E-05
   181 Broy./Diag. 0.10E+00    9.1     0.02172986      -694.3737072437  4.80E-03
   182 Broy./Diag. 0.10E+00    9.1     0.01389704      -694.3655130436  8.19E-03
   183 Broy./Diag. 0.10E+00    9.1     0.01018566      -694.3589928030  6.52E-03
   184 Broy./Diag. 0.10E+00    9.1     0.00690949      -694.3602295977 -1.24E-03
   185 Broy./Diag. 0.10E+00    9.1     0.00973361      -694.3628246548 -2.60E-03
   186 Broy./Diag. 0.10E+00    9.1     0.01953677      -694.3654683216 -2.64E-03
   187 Broy./Diag. 0.10E+00    9.1     0.00057444      -694.3613418130  4.13E-03
   188 Broy./Diag. 0.10E+00    9.1     0.00879759      -694.3611802798  1.62E-04
   189 Broy./Diag. 0.10E+00    9.1     0.00761649      -694.3592733606  1.91E-03
   190 Broy./Diag. 0.10E+00    9.1     0.02408797      -694.3589439685  3.29E-04
   191 Broy./Diag. 0.10E+00    9.1     0.03171776      -694.3456810118  1.33E-02
   192 Broy./Diag. 0.10E+00    9.1     0.04393559      -694.3607536144 -1.51E-02
   193 Broy./Diag. 0.10E+00    9.1     0.01645561      -694.3776071919 -1.69E-02
   194 Broy./Diag. 0.10E+00    9.1     0.01061582      -694.3724423275  5.16E-03
   195 Broy./Diag. 0.10E+00    9.1     0.01800518      -694.3751315507 -2.69E-03
   196 Broy./Diag. 0.10E+00    9.1     0.00533655      -694.3697305574  5.40E-03
   197 Broy./Diag. 0.10E+00    9.1     0.00771812      -694.3681523747  1.58E-03
   198 Broy./Diag. 0.10E+00    9.1     0.00341207      -694.3665872373  1.57E-03
   199 Broy./Diag. 0.10E+00    9.1     0.00303015      -694.3665551566  3.21E-05
   200 Broy./Diag. 0.10E+00    9.1     0.02981411      -694.3678690135 -1.31E-03
   201 Broy./Diag. 0.10E+00    9.1     0.01225836      -694.3562185248  1.17E-02
   202 Broy./Diag. 0.10E+00    9.1     0.03558695      -694.3501653505  6.05E-03
   203 Broy./Diag. 0.10E+00    9.1     0.01653013      -694.3605745018 -1.04E-02
   204 Broy./Diag. 0.10E+00    9.1     0.02888908      -694.3595104092  1.06E-03
   205 Broy./Diag. 0.10E+00    9.1     0.01837136      -694.3429877507  1.65E-02
   206 Broy./Diag. 0.10E+00    9.1     0.01135974      -694.3510829831 -8.10E-03
   207 Broy./Diag. 0.10E+00    9.1     0.03816679      -694.3544697057 -3.39E-03
   208 Broy./Diag. 0.10E+00    9.1     0.01554071      -694.3701316780 -1.57E-02
   209 Broy./Diag. 0.10E+00    9.1     0.01232541      -694.3626295235  7.50E-03
   210 Broy./Diag. 0.10E+00    9.1     0.00282184      -694.3669389817 -4.31E-03
   211 Broy./Diag. 0.10E+00    9.1     0.00618963      -694.3665231525  4.16E-04
   212 Broy./Diag. 0.10E+00    9.1     0.00454713      -694.3634263913  3.10E-03
   213 Broy./Diag. 0.10E+00    9.1     0.01333968      -694.3607343746  2.69E-03
   214 Broy./Diag. 0.10E+00    9.1     0.01744488      -694.3672634917 -6.53E-03
   215 Broy./Diag. 0.10E+00    9.1     0.02133231      -694.3608924810  6.37E-03
   216 Broy./Diag. 0.10E+00    9.1     0.03223926      -694.3487333273  1.22E-02
   217 Broy./Diag. 0.10E+00    9.1     0.00972534      -694.3633938824 -1.47E-02
   218 Broy./Diag. 0.10E+00    9.1     0.00685334      -694.3670038028 -3.61E-03
   219 Broy./Diag. 0.10E+00    9.1     0.00900459      -694.3688176981 -1.81E-03
   220 Broy./Diag. 0.10E+00    9.1     0.00437802      -694.3669284354  1.89E-03
   221 Broy./Diag. 0.10E+00    9.1     0.00051675      -694.3675623829 -6.34E-04
   222 Broy./Diag. 0.10E+00    9.1     0.02856913      -694.3690472164 -1.48E-03
   223 Broy./Diag. 0.10E+00    9.1     0.00145583      -694.3557178718  1.33E-02
   224 Broy./Diag. 0.10E+00    9.1     0.01247194      -694.3551658821  5.52E-04
   225 Broy./Diag. 0.10E+00    9.1     0.01064939      -694.3619952111 -6.83E-03
   226 Broy./Diag. 0.10E+00    9.1     0.00483734      -694.3570262842  4.97E-03
   227 Broy./Diag. 0.10E+00    9.1     0.01374540      -694.3569029314  1.23E-04
   228 Broy./Diag. 0.10E+00    9.1     0.02683584      -694.3600042680 -3.10E-03
   229 Broy./Diag. 0.10E+00    9.1     0.05002869      -694.3482574549  1.17E-02
   230 Broy./Diag. 0.10E+00    9.1     0.01022023      -694.3681955883 -1.99E-02
   231 Broy./Diag. 0.10E+00    9.1     0.01714803      -694.3699503192 -1.75E-03
   232 Broy./Diag. 0.10E+00    9.1     0.00950047      -694.3690290590  9.21E-04
   233 Broy./Diag. 0.10E+00    9.1     0.03006030      -694.3725698590 -3.54E-03
   234 Broy./Diag. 0.10E+00    9.1     0.00541360      -694.3633669976  9.20E-03
   235 Broy./Diag. 0.10E+00    9.1     0.00342001      -694.3623546109  1.01E-03
   236 Broy./Diag. 0.10E+00    9.1     0.00044234      -694.3638202325 -1.47E-03
   237 Broy./Diag. 0.10E+00    9.1     0.03535722      -694.3658717995 -2.05E-03
   238 Broy./Diag. 0.10E+00    9.1     0.03327186      -694.3500849190  1.58E-02
   239 Broy./Diag. 0.10E+00    9.1     0.01752827      -694.3645985598 -1.45E-02
   240 Broy./Diag. 0.10E+00    9.1     0.00532752      -694.3621702053  2.43E-03
   241 Broy./Diag. 0.10E+00    9.1     0.02543384      -694.3621011239  6.91E-05
   242 Broy./Diag. 0.10E+00    9.1     0.03708839      -694.3608844287  1.22E-03
   243 Broy./Diag. 0.10E+00    9.1     0.02139978      -694.3438973185  1.70E-02
   244 Broy./Diag. 0.10E+00    9.1     0.00497528      -694.3540589126 -1.02E-02
   245 Broy./Diag. 0.10E+00    9.1     0.00266474      -694.3524227538  1.64E-03
   246 Broy./Diag. 0.10E+00    9.1     0.00629862      -694.3525163617 -9.36E-05
   247 Broy./Diag. 0.10E+00    9.1     0.01285821      -694.3487718946  3.74E-03
