 DBCSR| Multiplication driver                                               XSMM
 DBCSR| Multrec recursion limit                                              512
 DBCSR| Multiplication stack size                                           1000
 DBCSR| Maximum elements for images                                    UNLIMITED
 DBCSR| Multiplicative factor virtual images                                   1
 DBCSR| Multiplication size stacks                                             3
 DBCSR| Number of 3D layers                                               SINGLE
 DBCSR| Use MPI memory allocation                                              T
 DBCSR| Use RMA algorithm                                                      F
 DBCSR| Use Communication thread                                               T
 DBCSR| Communication thread load                                             87


  **** **** ******  **  PROGRAM STARTED AT               2023-09-29 18:58:15.999
 ***** ** ***  *** **   PROGRAM STARTED ON                            sebnode110
 **    ****   ******    PROGRAM STARTED BY                                luehrs
 ***** **    ** ** **   PROGRAM PROCESS ID                               1796764
  **** **  *******  **  PROGRAM STARTED IN /home/luehrs/PhD/Sodium-graphene-edge
                                           /graphene_zig-zag/Hydrogen/Sodium

 CP2K| version string:                    CP2K version 7.0 (Development Version)
 CP2K| source code revision number:                                             
 CP2K| cp2kflags: libint fftw3 libxc parallel mpi3 scalapack xsmm libderiv_max_a
 CP2K|            m1=8 libint_max_am=9 max_contr=4
 CP2K| is freely available from                            https://www.cp2k.org/
 CP2K| Program compiled at                         Sun Jun 24 14:37:16 CEST 2018
 CP2K| Program compiled on                                            sebstorage
 CP2K| Program compiled for                                Linux-x86-64-gfortran
 CP2K| Data directory path    /home/brehm/Software_Batchnode/2018/Source/cp2k_18
 CP2K| Input file name                                         input.zig-zag.inp

 GLOBAL| Force Environment number                                              1
 GLOBAL| Basis set file name                                      ./BASIS_MOLOPT
 GLOBAL| Potential file name                                    ./GTH_POTENTIALS
 GLOBAL| MM Potential file name                                     MM_POTENTIAL
 GLOBAL| Coordinate file name           graphene_zig_zag_hydrogen_sodium_relaxed
 GLOBAL| Method name                                                        CP2K
 GLOBAL| Project name                               graphene_zig_zag_sodium_BSSE
 GLOBAL| Preferred FFT library                                             FFTW3
 GLOBAL| Preferred diagonalization lib.                                       SL
 GLOBAL| Run type                                                           BSSE
 GLOBAL| All-to-all communication in single precision                          F
 GLOBAL| FFTs using library dependent lengths                                  F
 GLOBAL| Global print level                                               MEDIUM
 GLOBAL| Total number of message passing processes                            16
 GLOBAL| Number of threads for this process                                    1
 GLOBAL| This output is from process                                           0
 GLOBAL| CPU model name :  Intel(R) Xeon(R) CPU E5-2620 v4 @ 2.10GHz

 MEMORY| system memory details [Kb]
 MEMORY|                        rank 0           min           max       average
 MEMORY| MemTotal             65847880      65847880      65847880      65847880
 MEMORY| MemFree              55448340      55448340      55448340      55448340
 MEMORY| Buffers               1063456       1063456       1063456       1063456
 MEMORY| Cached                4925692       4925692       4925692       4925692
 MEMORY| Slab                  1071724       1071724       1071724       1071724
 MEMORY| SReclaimable           604704        604704        604704        604704
 MEMORY| MemLikelyFree        62042192      62042192      62042192      62042192


 *** Fundamental physical constants (SI units) ***

 *** Literature: B. J. Mohr and B. N. Taylor,
 ***             CODATA recommended values of the fundamental physical
 ***             constants: 2006, Web Version 5.1
 ***             http://physics.nist.gov/constants

 Speed of light in vacuum [m/s]                             2.99792458000000E+08
 Magnetic constant or permeability of vacuum [N/A**2]       1.25663706143592E-06
 Electric constant or permittivity of vacuum [F/m]          8.85418781762039E-12
 Planck constant (h) [J*s]                                  6.62606896000000E-34
 Planck constant (h-bar) [J*s]                              1.05457162825177E-34
 Elementary charge [C]                                      1.60217648700000E-19
 Electron mass [kg]                                         9.10938215000000E-31
 Electron g factor [ ]                                     -2.00231930436220E+00
 Proton mass [kg]                                           1.67262163700000E-27
 Fine-structure constant                                    7.29735253760000E-03
 Rydberg constant [1/m]                                     1.09737315685270E+07
 Avogadro constant [1/mol]                                  6.02214179000000E+23
 Boltzmann constant [J/K]                                   1.38065040000000E-23
 Atomic mass unit [kg]                                      1.66053878200000E-27
 Bohr radius [m]                                            5.29177208590000E-11

 *** Conversion factors ***

 [u] -> [a.u.]                                              1.82288848426455E+03
 [Angstrom] -> [Bohr] = [a.u.]                              1.88972613288564E+00
 [a.u.] = [Bohr] -> [Angstrom]                              5.29177208590000E-01
 [a.u.] -> [s]                                              2.41888432650478E-17
 [a.u.] -> [fs]                                             2.41888432650478E-02
 [a.u.] -> [J]                                              4.35974393937059E-18
 [a.u.] -> [N]                                              8.23872205491840E-08
 [a.u.] -> [K]                                              3.15774647902944E+05
 [a.u.] -> [kJ/mol]                                         2.62549961709828E+03
 [a.u.] -> [kcal/mol]                                       6.27509468713739E+02
 [a.u.] -> [Pa]                                             2.94210107994716E+13
 [a.u.] -> [bar]                                            2.94210107994716E+08
 [a.u.] -> [atm]                                            2.90362800883016E+08
 [a.u.] -> [eV]                                             2.72113838565563E+01
 [a.u.] -> [Hz]                                             6.57968392072181E+15
 [a.u.] -> [1/cm] (wave numbers)                            2.19474631370540E+05
 [a.u./Bohr**2] -> [1/cm]                                   5.14048714338585E+03
 

 CELL_TOP| Volume [angstrom^3]:                                        13612.534
 CELL_TOP| Vector a [angstrom    19.648     0.000     0.000    |a| =      19.648
 CELL_TOP| Vector b [angstrom    20.000    34.641     0.000    |b| =      40.000
 CELL_TOP| Vector c [angstrom     0.000     0.000    20.000    |c| =      20.000
 CELL_TOP| Angle (b,c), alpha [degree]:                                   90.000
 CELL_TOP| Angle (a,c), beta  [degree]:                                   90.000
 CELL_TOP| Angle (a,b), gamma [degree]:                                   60.000
 CELL_TOP| Requested initial symmetry:                                 TRICLINIC
 CELL_TOP| Numerically orthorhombic:                                          NO

 GENERATE|  Preliminary Number of Bonds generated:                             0
 GENERATE|  Achieved consistency in connectivity generation.

 CELL| Volume [angstrom^3]:                                            13612.534
 CELL| Vector a [angstrom]:      19.648     0.000     0.000    |a| =      19.648
 CELL| Vector b [angstrom]:      20.000    34.641     0.000    |b| =      40.000
 CELL| Vector c [angstrom]:       0.000     0.000    20.000    |c| =      20.000
 CELL| Angle (b,c), alpha [degree]:                                       90.000
 CELL| Angle (a,c), beta  [degree]:                                       90.000
 CELL| Angle (a,b), gamma [degree]:                                       60.000
 CELL| Requested initial symmetry:                                     TRICLINIC
 CELL| Numerically orthorhombic:                                              NO

 CELL_REF| Volume [angstrom^3]:                                        13612.534
 CELL_REF| Vector a [angstrom    19.648     0.000     0.000    |a| =      19.648
 CELL_REF| Vector b [angstrom    20.000    34.641     0.000    |b| =      40.000
 CELL_REF| Vector c [angstrom     0.000     0.000    20.000    |c| =      20.000
 CELL_REF| Angle (b,c), alpha [degree]:                                   90.000
 CELL_REF| Angle (a,c), beta  [degree]:                                   90.000
 CELL_REF| Angle (a,b), gamma [degree]:                                   60.000
 CELL_REF| Requested initial symmetry:                                 TRICLINIC
 CELL_REF| Numerically orthorhombic:                                          NO

 *******************************************************************************
 *******************************************************************************
 **                                                                           **
 **     #####                         ##              ##                      **
 **    ##   ##            ##          ##              ##                      **
 **   ##     ##                       ##            ######                    **
 **   ##     ##  ##   ##  ##   #####  ##  ##   ####   ##    #####    #####    **
 **   ##     ##  ##   ##  ##  ##      ## ##   ##      ##   ##   ##  ##   ##   **
 **   ##  ## ##  ##   ##  ##  ##      ####     ###    ##   ######   ######    **
 **    ##  ###   ##   ##  ##  ##      ## ##      ##   ##   ##       ##        **
 **     #######   #####   ##   #####  ##  ##  ####    ##    #####   ##        **
 **           ##                                                    ##        **
 **                                                                           **
 **                                                ... make the atoms dance   **
 **                                                                           **
 **            Copyright (C) by CP2K developers group (2000 - 2018)           **
 **                                                                           **
 *******************************************************************************

 DFT| Spin unrestricted (spin-polarized) Kohn-Sham calculation               UKS
 DFT| Multiplicity                                                             1
 DFT| Number of spin states                                                    2
 DFT| Charge                                                                   1
 DFT| Self-interaction correction (SIC)                                       NO
 DFT| Cutoffs: density                                              1.000000E-10
 DFT|          gradient                                             1.000000E-10
 DFT|          tau                                                  1.000000E-10
 DFT|          cutoff_smoothing_range                               0.000000E+00
 DFT| XC density smoothing                                                  NONE
 DFT| XC derivatives                                              SPLINE2_SMOOTH
 FUNCTIONAL| ROUTINE=NEW
 FUNCTIONAL| BECKE88:
 FUNCTIONAL| A. Becke, Phys. Rev. A 38, 3098 (1988) {LSD version}               
 FUNCTIONAL| LYP:
 FUNCTIONAL| C. Lee, W. Yang, R.G. Parr, Phys. Rev. B, 37, 785 (1988) {LSD versi
 FUNCTIONAL| on}                                                                
 vdW POTENTIAL|                                                   Pair Potential
 vdW POTENTIAL|          DFT-D3 (Version 3.1)
 vdW POTENTIAL|          Potential Form: S. Grimme et al, JCP 132: 154104 (2010)
 vdW POTENTIAL|          Zero Damping
 vdW POTENTIAL|          Cutoff Radius [Bohr]:                             20.00
 vdW POTENTIAL|          s6 Scaling Factor:                               1.0000
 vdW POTENTIAL|          sr6 Scaling Factor:                              1.0940
 vdW POTENTIAL|          s8 Scaling Factor:                               1.6820
 vdW POTENTIAL|          Cutoff for CN calculation:                   0.1000E-05

 QS| Method:                                                                 GPW
 QS| Density plane wave grid type                        NON-SPHERICAL FULLSPACE
 QS| Number of grid levels:                                                    4
 QS| Density cutoff [a.u.]:                                                150.0
 QS| Multi grid cutoff [a.u.]: 1) grid level                               150.0
 QS|                           2) grid level                                50.0
 QS|                           3) grid level                                16.7
 QS|                           4) grid level                                 5.6
 QS| Grid level progression factor:                                          3.0
 QS| Relative density cutoff [a.u.]:                                        20.0
 QS| Consistent realspace mapping and integration 
 QS| Interaction thresholds: eps_pgf_orb:                                1.0E-06
 QS|                         eps_filter_matrix:                          0.0E+00
 QS|                         eps_core_charge:                            1.0E-14
 QS|                         eps_rho_gspace:                             1.0E-12
 QS|                         eps_rho_rspace:                             1.0E-12
 QS|                         eps_gvg_rspace:                             1.0E-06
 QS|                         eps_ppl:                                    1.0E-02
 QS|                         eps_ppnl:                                   1.0E-08


 ATOMIC KIND INFORMATION

  1. Atomic kind: C                                     Number of atoms:     112

     Orbital Basis Set                                        DZVP-MOLOPT-SR-GTH

       Number of orbital shell sets:                                           1
       Number of orbital shells:                                               5
       Number of primitive Cartesian functions:                                5
       Number of Cartesian basis functions:                                   14
       Number of spherical basis functions:                                   13
       Norm type:                                                              2

       Normalised Cartesian orbitals:

                        Set   Shell   Orbital            Exponent    Coefficient

                          1       1    2s                5.605331       0.322515
                                                         2.113016       0.213043
                                                         0.769911      -0.209686
                                                         0.348157      -0.219794
                                                         0.128212      -0.022789

                          1       2    3s                5.605331       0.552234
                                                         2.113016       0.082072
                                                         0.769911       0.007843
                                                         0.348157       0.136893
                                                         0.128212       0.074283

                          1       3    3px               5.605331      -0.703879
                                                         2.113016      -0.642521
                                                         0.769911      -0.374851
                                                         0.348157      -0.139743
                                                         0.128212      -0.027849
                          1       3    3py               5.605331      -0.703879
                                                         2.113016      -0.642521
                                                         0.769911      -0.374851
                                                         0.348157      -0.139743
                                                         0.128212      -0.027849
                          1       3    3pz               5.605331      -0.703879
                                                         2.113016      -0.642521
                                                         0.769911      -0.374851
                                                         0.348157      -0.139743
                                                         0.128212      -0.027849

                          1       4    4px               5.605331      -0.480376
                                                         2.113016      -0.552894
                                                         0.769911      -0.316145
                                                         0.348157       0.210505
                                                         0.128212       0.076095
                          1       4    4py               5.605331      -0.480376
                                                         2.113016      -0.552894
                                                         0.769911      -0.316145
                                                         0.348157       0.210505
                                                         0.128212       0.076095
                          1       4    4pz               5.605331      -0.480376
                                                         2.113016      -0.552894
                                                         0.769911      -0.316145
                                                         0.348157       0.210505
                                                         0.128212       0.076095

                          1       5    4dx2              5.605331       0.640026
                                                         2.113016       0.274300
                                                         0.769911       0.446711
                                                         0.348157       0.028674
                                                         0.128212       0.029790
                          1       5    4dxy              5.605331       1.108557
                                                         2.113016       0.475102
                                                         0.769911       0.773726
                                                         0.348157       0.049666
                                                         0.128212       0.051599
                          1       5    4dxz              5.605331       1.108557
                                                         2.113016       0.475102
                                                         0.769911       0.773726
                                                         0.348157       0.049666
                                                         0.128212       0.051599
                          1       5    4dy2              5.605331       0.640026
                                                         2.113016       0.274300
                                                         0.769911       0.446711
                                                         0.348157       0.028674
                                                         0.128212       0.029790
                          1       5    4dyz              5.605331       1.108557
                                                         2.113016       0.475102
                                                         0.769911       0.773726
                                                         0.348157       0.049666
                                                         0.128212       0.051599
                          1       5    4dz2              5.605331       0.640026
                                                         2.113016       0.274300
                                                         0.769911       0.446711
                                                         0.348157       0.028674
                                                         0.128212       0.029790

     GTH Potential information for                                    GTH-PBE-q4

       Description:                       Goedecker-Teter-Hutter pseudopotential
                                           Goedecker et al., PRB 54, 1703 (1996)
                                          Hartwigsen et al., PRB 58, 3641 (1998)
                                                      Krack, TCA 114, 145 (2005)

       Gaussian exponent of the core charge distribution:               4.364419
       Electronic configuration (s p d ...):                               2   2

       Parameters of the local part of the GTH pseudopotential:

                          rloc        C1          C2          C3          C4
                        0.338471   -8.803674    1.339211

       Parameters of the non-local part of the GTH pseudopotential:

                   l      r(l)      h(i,j,l)

                   0    0.302576    9.622487
                   1    0.291507

  2. Atomic kind: H                                     Number of atoms:      16

     Orbital Basis Set                                        DZVP-MOLOPT-SR-GTH

       Number of orbital shell sets:                                           1
       Number of orbital shells:                                               3
       Number of primitive Cartesian functions:                                5
       Number of Cartesian basis functions:                                    5
       Number of spherical basis functions:                                    5
       Norm type:                                                              2

       Normalised Cartesian orbitals:

                        Set   Shell   Orbital            Exponent    Coefficient

                          1       1    2s               10.068468      -0.133023
                                                         2.680223      -0.177618
                                                         0.791502      -0.258419
                                                         0.239116      -0.107525
                                                         0.082193      -0.014019

                          1       2    3s               10.068468       0.344673
                                                         2.680223       1.819821
                                                         0.791502      -0.999069
                                                         0.239116       0.017430
                                                         0.082193       0.082660

                          1       3    3px              10.068468       0.155326
                                                         2.680223       0.367157
                                                         0.791502       0.311480
                                                         0.239116       0.080105
                                                         0.082193       0.033440
                          1       3    3py              10.068468       0.155326
                                                         2.680223       0.367157
                                                         0.791502       0.311480
                                                         0.239116       0.080105
                                                         0.082193       0.033440
                          1       3    3pz              10.068468       0.155326
                                                         2.680223       0.367157
                                                         0.791502       0.311480
                                                         0.239116       0.080105
                                                         0.082193       0.033440

     GTH Potential information for                                    GTH-PBE-q1

       Description:                       Goedecker-Teter-Hutter pseudopotential
                                           Goedecker et al., PRB 54, 1703 (1996)
                                          Hartwigsen et al., PRB 58, 3641 (1998)
                                                      Krack, TCA 114, 145 (2005)

       Gaussian exponent of the core charge distribution:              12.500000
       Electronic configuration (s p d ...):                                   1

       Parameters of the local part of the GTH pseudopotential:

                          rloc        C1          C2          C3          C4
                        0.200000   -4.178900    0.724463

  3. Atomic kind: Na                                    Number of atoms:       1

     Orbital Basis Set                                        DZVP-MOLOPT-SR-GTH

       Number of orbital shell sets:                                           1
       Number of orbital shells:                                               5
       Number of primitive Cartesian functions:                                7
       Number of Cartesian basis functions:                                    9
       Number of spherical basis functions:                                    9
       Norm type:                                                              2

       Normalised Cartesian orbitals:

                        Set   Shell   Orbital            Exponent    Coefficient

                          1       1    2s               23.518801       0.288931
                                                        11.135656       0.787174
                                                         4.647814      -0.190850
                                                         1.866708      -0.573823
                                                         0.734684      -0.276866
                                                         0.275673      -0.024211
                                                         0.049895      -0.000019

                          1       2    3s               23.518801       0.039212
                                                        11.135656       0.138585
                                                         4.647814      -0.048916
                                                         1.866708      -0.102378
                                                         0.734684      -0.139633
                                                         0.275673       0.012767
                                                         0.049895       0.077569

                          1       3    4s               23.518801       0.303698
                                                        11.135656      -0.548845
                                                         4.647814       0.534441
                                                         1.866708      -0.220920
                                                         0.734684       0.980584
                                                         0.275673      -0.653367
                                                         0.049895       0.063703

                          1       4    3px              23.518801      -2.919466
                                                        11.135656      -2.855941
                                                         4.647814      -2.579491
                                                         1.866708      -1.208264
                                                         0.734684      -0.321406
                                                         0.275673      -0.035032
                                                         0.049895      -0.000067
                          1       4    3py              23.518801      -2.919466
                                                        11.135656      -2.855941
                                                         4.647814      -2.579491
                                                         1.866708      -1.208264
                                                         0.734684      -0.321406
                                                         0.275673      -0.035032
                                                         0.049895      -0.000067
                          1       4    3pz              23.518801      -2.919466
                                                        11.135656      -2.855941
                                                         4.647814      -2.579491
                                                         1.866708      -1.208264
                                                         0.734684      -0.321406
                                                         0.275673      -0.035032
                                                         0.049895      -0.000067

                          1       5    4px              23.518801      -0.381914
                                                        11.135656      -0.488169
                                                         4.647814      -0.407378
                                                         1.866708      -0.201739
                                                         0.734684      -0.078845
                                                         0.275673       0.043427
                                                         0.049895       0.031563
                          1       5    4py              23.518801      -0.381914
                                                        11.135656      -0.488169
                                                         4.647814      -0.407378
                                                         1.866708      -0.201739
                                                         0.734684      -0.078845
                                                         0.275673       0.043427
                                                         0.049895       0.031563
                          1       5    4pz              23.518801      -0.381914
                                                        11.135656      -0.488169
                                                         4.647814      -0.407378
                                                         1.866708      -0.201739
                                                         0.734684      -0.078845
                                                         0.275673       0.043427
                                                         0.049895       0.031563

     GTH Potential information for                                    GTH-PBE-q9

       Description:                       Goedecker-Teter-Hutter pseudopotential
                                           Goedecker et al., PRB 54, 1703 (1996)
                                          Hartwigsen et al., PRB 58, 3641 (1998)
                                                      Krack, TCA 114, 145 (2005)

       Gaussian exponent of the core charge distribution:               8.937631
       Electronic configuration (s p d ...):                               3   6

       Parameters of the local part of the GTH pseudopotential:

                          rloc        C1          C2          C3          C4
                        0.236523    0.295105   -0.913885

       Parameters of the non-local part of the GTH pseudopotential:

                   l      r(l)      h(i,j,l)

                   0    0.143560   34.601492
                   1    0.129932  -14.277462


 MOLECULE KIND INFORMATION


 All atoms are their own molecule, skipping detailed information


 TOTAL NUMBERS AND MAXIMUM NUMBERS

  Total number of            - Atomic kinds:                                   3
                             - Atoms:                                        129
                             - Shell sets:                                   129
                             - Shells:                                       613
                             - Primitive Cartesian functions:                647
                             - Cartesian basis functions:                   1657
                             - Spherical basis functions:                   1545

  Maximum angular momentum of- Orbital basis functions:                        2
                             - Local part of the GTH pseudopotential:          2
                             - Non-local part of the GTH pseudopotential:      1


 MODULE QUICKSTEP:  ATOMIC COORDINATES IN angstrom

  Atom  Kind  Element       X           Y           Z          Z(eff)       Mass

       1     1 C    6    8.597040   14.970628    0.043112      4.00      12.0107
       2     1 C    6    9.825317   15.658979    0.059683      4.00      12.0107
       3     1 C    6   11.053104   14.971573    0.053452      4.00      12.0107
       4     1 C    6   12.282477   15.658963    0.047527      4.00      12.0107
       5     1 C    6   13.509774   14.970678    0.018733      4.00      12.0107
       6     1 C    6   14.738216   15.658417   -0.020132      4.00      12.0107
       7     1 C    6   15.966283   14.970840   -0.062139      4.00      12.0107
       8     1 C    6   17.193371   15.660599   -0.102834      4.00      12.0107
       9     1 C    6   18.421727   14.972310   -0.129980      4.00      12.0107
      10     1 C    6   19.650207   15.661136   -0.146544      4.00      12.0107
      11     1 C    6   20.877807   14.972633   -0.146194      4.00      12.0107
      12     1 C    6   22.107766   15.659324   -0.136864      4.00      12.0107
      13     1 C    6   23.335210   14.971160   -0.106765      4.00      12.0107
      14     1 C    6   24.563023   15.659102   -0.062061      4.00      12.0107
      15     1 C    6   25.790254   14.971350   -0.020205      4.00      12.0107
      16     1 C    6   27.017560   15.659102    0.026583      4.00      12.0107
      17     1 C    6   25.788634   13.520635   -0.034214      4.00      12.0107
      18     1 C    6   23.332987   13.520468   -0.114925      4.00      12.0107
      19     1 C    6   20.875265   13.521094   -0.148265      4.00      12.0107
      20     1 C    6   18.420010   13.519742   -0.127666      4.00      12.0107
      21     1 C    6   15.965546   13.518644   -0.052223      4.00      12.0107
      22     1 C    6   14.736135   12.807447   -0.016160      4.00      12.0107
      23     1 C    6   13.509150   13.519437    0.024410      4.00      12.0107
      24     1 C    6   12.279076   12.809130    0.045711      4.00      12.0107
      25     1 C    6   11.051249   13.520191    0.057134      4.00      12.0107
      26     1 C    6    9.822560   12.807093    0.049310      4.00      12.0107
      27     1 C    6    8.595397   13.519039    0.040344      4.00      12.0107
      28     1 C    6    7.365856   12.807790    0.006646      4.00      12.0107
      29     1 C    6   24.560159   12.809655   -0.073612      4.00      12.0107
      30     1 C    6   22.103370   12.810916   -0.139429      4.00      12.0107
      31     1 C    6   19.647078   12.806717   -0.143088      4.00      12.0107
      32     1 C    6   17.192146   12.805221   -0.094616      4.00      12.0107
      33     1 C    6   24.555311   11.371606   -0.080103      4.00      12.0107
      34     1 C    6   23.324676   10.661116   -0.111528      4.00      12.0107
      35     1 C    6   22.098508   11.373263   -0.133740      4.00      12.0107
      36     1 C    6   20.872678   10.653312   -0.134764      4.00      12.0107
      37     1 C    6   19.644650   11.366121   -0.136854      4.00      12.0107
      38     1 C    6   18.418360   10.645608   -0.115492      4.00      12.0107
      39     1 C    6   17.190837   11.364376   -0.083790      4.00      12.0107
      40     1 C    6   15.960860   10.651902   -0.051244      4.00      12.0107
      41     1 C    6   14.733728   11.368708   -0.011706      4.00      12.0107
      42     1 C    6   13.501690   10.657463    0.022283      4.00      12.0107
      43     1 C    6   12.274830   11.370666    0.041807      4.00      12.0107
      44     1 C    6   11.043972   10.656123    0.045552      4.00      12.0107
      45     1 C    6    9.816239   11.367904    0.045449      4.00      12.0107
      46     1 C    6    8.587017   10.652731    0.023066      4.00      12.0107
      47     1 C    6    7.361781   11.369134   -0.003311      4.00      12.0107
      48     1 C    6    6.133349   10.655437   -0.040955      4.00      12.0107
      49     1 C    6    6.130175    9.219389   -0.047750      4.00      12.0107
      50     1 C    6    7.354698    8.499240   -0.031171      4.00      12.0107
      51     1 C    6    8.580062    9.218240   -0.001676      4.00      12.0107
      52     1 C    6    9.809343    8.502240   -0.001810      4.00      12.0107
      53     1 C    6   11.037727    9.220287    0.028852      4.00      12.0107
      54     1 C    6   12.265951    8.505579    0.005826      4.00      12.0107
      55     1 C    6   13.493969    9.224599    0.005896      4.00      12.0107
      56     1 C    6   14.724625    8.506191   -0.026849      4.00      12.0107
      57     1 C    6   15.958459    9.216640   -0.043446      4.00      12.0107
      58     1 C    6   17.188075    8.500741   -0.064564      4.00      12.0107
      59     1 C    6   18.422609    9.205872   -0.093125      4.00      12.0107
      60     1 C    6   19.654562    8.494152   -0.090794      4.00      12.0107
      61     1 C    6   20.874339    9.217594   -0.105983      4.00      12.0107
      62     1 C    6   22.097978    8.501635   -0.064621      4.00      12.0107
      63     1 C    6   23.319785    9.230160   -0.087486      4.00      12.0107
      64     1 C    6   22.097841    7.067091   -0.053989      4.00      12.0107
      65     1 C    6   20.871210    6.350440   -0.046632      4.00      12.0107
      66     1 C    6   19.645388    7.062292   -0.068595      4.00      12.0107
      67     1 C    6   18.414015    6.353783   -0.046449      4.00      12.0107
      68     1 C    6   17.185653    7.067294   -0.054354      4.00      12.0107
      69     1 C    6   15.957033    6.354511   -0.045936      4.00      12.0107
      70     1 C    6   14.728037    7.069974   -0.039463      4.00      12.0107
      71     1 C    6   13.500326    6.352241   -0.040600      4.00      12.0107
      72     1 C    6   12.271718    7.067702   -0.027800      4.00      12.0107
      73     1 C    6   11.043924    6.347955   -0.047820      4.00      12.0107
      74     1 C    6    9.814220    7.063259   -0.034362      4.00      12.0107
      75     1 C    6    8.587175    6.344056   -0.056808      4.00      12.0107
      76     1 C    6    7.358452    7.062084   -0.046104      4.00      12.0107
      77     1 C    6    6.128728    6.350791   -0.053830      4.00      12.0107
      78     1 C    6    4.901782    7.070722   -0.053360      4.00      12.0107
      79     1 C    6    4.900043    8.507847   -0.063648      4.00      12.0107
      80     1 C    6    3.675770    6.352436   -0.050329      4.00      12.0107
      81     1 C    6    3.672471    4.914129   -0.032985      4.00      12.0107
      82     1 C    6    4.896815    4.199200   -0.038999      4.00      12.0107
      83     1 C    6    6.126625    4.910075   -0.061045      4.00      12.0107
      84     1 C    6    7.351284    4.191544   -0.093208      4.00      12.0107
      85     1 C    6    8.585329    4.902348   -0.082919      4.00      12.0107
      86     1 C    6    9.816671    4.190549   -0.106635      4.00      12.0107
      87     1 C    6   11.046181    4.905622   -0.077469      4.00      12.0107
      88     1 C    6   12.278001    4.195124   -0.079187      4.00      12.0107
      89     1 C    6   13.504339    4.911774   -0.060528      4.00      12.0107
      90     1 C    6   14.733477    4.201388   -0.048659      4.00      12.0107
      91     1 C    6   15.959307    4.916144   -0.046230      4.00      12.0107
      92     1 C    6   17.186611    4.205122   -0.028987      4.00      12.0107
      93     1 C    6   18.413933    4.916807   -0.036284      4.00      12.0107
      94     1 C    6   19.639682    4.204669   -0.009576      4.00      12.0107
      95     1 C    6   20.868074    4.914297   -0.026280      4.00      12.0107
      96     1 C    6   19.638562    2.755276    0.024573      4.00      12.0107
      97     1 C    6   18.411942    2.067551    0.029570      4.00      12.0107
      98     1 C    6   17.185724    2.754825   -0.013258      4.00      12.0107
      99     1 C    6   15.960477    2.065530   -0.024435      4.00      12.0107
     100     1 C    6   14.733590    2.750798   -0.045752      4.00      12.0107
     101     1 C    6   13.507278    2.061475   -0.060080      4.00      12.0107
     102     1 C    6   12.282455    2.742673   -0.096879      4.00      12.0107
     103     1 C    6   11.051169    2.049739   -0.133295      4.00      12.0107
     104     1 C    6    9.818369    2.731808   -0.127219      4.00      12.0107
     105     1 C    6    8.577198    2.042774   -0.161870      4.00      12.0107
     106     1 C    6    6.119902    2.058926   -0.049564      4.00      12.0107
     107     1 C    6    7.342829    2.738081   -0.105132      4.00      12.0107
     108     1 C    6    4.894874    2.749201   -0.017272      4.00      12.0107
     109     1 C    6    3.668660    2.064592    0.033738      4.00      12.0107
     110     1 C    6    2.443521    2.753002    0.029796      4.00      12.0107
     111     1 C    6    2.445039    4.202128   -0.009739      4.00      12.0107
     112     1 C    6    1.215942    2.066862    0.052664      4.00      12.0107
     113     2 H    1   27.018112   16.745266    0.035069      1.00       1.0079
     114     2 H    1   24.564549   16.745324   -0.052121      1.00       1.0079
     115     2 H    1   22.110012   16.745710   -0.133773      1.00       1.0079
     116     2 H    1   17.193778   16.747140   -0.103640      1.00       1.0079
     117     2 H    1   14.738499   16.744990   -0.025415      1.00       1.0079
     118     2 H    1   12.283741   16.745391    0.045065      1.00       1.0079
     119     2 H    1    9.826797   16.745292    0.059633      1.00       1.0079
     120     2 H    1    1.214478    0.980947    0.082011      1.00       1.0079
     121     2 H    1    3.665503    0.978777    0.063226      1.00       1.0079
     122     2 H    1    6.112854    0.972428   -0.032813      1.00       1.0079
     123     2 H    1    8.573064    0.960591   -0.022656      1.00       1.0079
     124     2 H    1   11.058209    0.962700   -0.051996      1.00       1.0079
     125     2 H    1   13.512780    0.974907   -0.049267      1.00       1.0079
     126     2 H    1   15.962150    0.979207   -0.012011      1.00       1.0079
     127     2 H    1   18.411539    0.981356    0.052595      1.00       1.0079
     128     2 H    1   19.652055   16.747530   -0.144871      1.00       1.0079
     129     3 Na  11    9.528501    1.738665   -2.545973      9.00      22.9898




 SCF PARAMETERS         Density guess:                                    ATOMIC
                        --------------------------------------------------------
                        max_scf:                                             200
                        max_scf_history:                                       0
                        max_diis:                                              4
                        --------------------------------------------------------
                        eps_scf:                                        3.00E-07
                        eps_scf_history:                                0.00E+00
                        eps_diis:                                       1.00E-01
                        eps_eigval:                                     1.00E-05
                        --------------------------------------------------------
                        level_shift [a.u.]:                                 0.00
                        added MOs                                       100  100
                        --------------------------------------------------------
                        Mixing method:                            BROYDEN_MIXING
                                                charge density mixing in g-space
                        --------------------------------------------------------
                        Smear method:                                FERMI_DIRAC
                        Electronic temperature [K]:                        300.0
                        Electronic temperature [a.u.]:                  9.50E-04
                        Accuracy threshold:                             1.00E-10
                        --------------------------------------------------------
                        Outer loop SCF in use 
                        No variables optimised in outer loop
                        eps_scf                                         1.00E-06
                        max_scf                                               30
                        DIIS optimization
                        DIIS buffer length                                     3
                        step_size                                       5.00E-01

 PW_GRID| Information for grid number                                          1
 PW_GRID| Grid distributed over                                    16 processors
 PW_GRID| Real space group dimensions                                    16    1
 PW_GRID| the grid is blocked:                                                NO
 PW_GRID| Cutoff [a.u.]                                                    150.0
 PW_GRID| spherical cutoff:                                                   NO
 PW_GRID|   Bounds   1           -108     107                Points:         216
 PW_GRID|   Bounds   2           -216     215                Points:         432
 PW_GRID|   Bounds   3           -108     107                Points:         216
 PW_GRID| Volume element (a.u.^3)  0.4558E-02     Volume (a.u.^3)     91861.9320
 PW_GRID| Grid span                                                    FULLSPACE
 PW_GRID|   Distribution                         Average         Max         Min
 PW_GRID|   G-Vectors                          1259712.0     1259712     1259712
 PW_GRID|   G-Rays                                5832.0        5832        5832
 PW_GRID|   Real Space Points                  1259712.0     1306368     1213056

 PW_GRID| Information for grid number                                          2
 PW_GRID| Grid distributed over                                    16 processors
 PW_GRID| Real space group dimensions                                    16    1
 PW_GRID| the grid is blocked:                                                NO
 PW_GRID| Cutoff [a.u.]                                                     50.0
 PW_GRID| spherical cutoff:                                                   NO
 PW_GRID|   Bounds   1            -60      59                Points:         120
 PW_GRID|   Bounds   2           -121     121                Points:         243
 PW_GRID|   Bounds   3            -62      62                Points:         125
 PW_GRID| Volume element (a.u.^3)  0.2520E-01     Volume (a.u.^3)     91861.9320
 PW_GRID| Grid span                                                    FULLSPACE
 PW_GRID|   Distribution                         Average         Max         Min
 PW_GRID|   G-Vectors                           227812.5      228960      226320
 PW_GRID|   G-Rays                                1898.4        1908        1886
 PW_GRID|   Real Space Points                   227812.5      243000      212625

 PW_GRID| Information for grid number                                          3
 PW_GRID| Grid distributed over                                    16 processors
 PW_GRID| Real space group dimensions                                    16    1
 PW_GRID| the grid is blocked:                                                NO
 PW_GRID| Cutoff [a.u.]                                                     16.7
 PW_GRID| spherical cutoff:                                                   NO
 PW_GRID|   Bounds   1            -36      35                Points:          72
 PW_GRID|   Bounds   2            -72      71                Points:         144
 PW_GRID|   Bounds   3            -36      35                Points:          72
 PW_GRID| Volume element (a.u.^3)  0.1231         Volume (a.u.^3)     91861.9320
 PW_GRID| Grid span                                                    FULLSPACE
 PW_GRID|   Distribution                         Average         Max         Min
 PW_GRID|   G-Vectors                            46656.0       46944       46512
 PW_GRID|   G-Rays                                 648.0         652         646
 PW_GRID|   Real Space Points                    46656.0       51840       41472

 PW_GRID| Information for grid number                                          4
 PW_GRID| Grid distributed over                                    16 processors
 PW_GRID| Real space group dimensions                                    16    1
 PW_GRID| the grid is blocked:                                                NO
 PW_GRID| Cutoff [a.u.]                                                      5.6
 PW_GRID| spherical cutoff:                                                   NO
 PW_GRID|   Bounds   1            -20      19                Points:          40
 PW_GRID|   Bounds   2            -40      40                Points:          81
 PW_GRID|   Bounds   3            -22      22                Points:          45
 PW_GRID| Volume element (a.u.^3)  0.6301         Volume (a.u.^3)     91861.9320
 PW_GRID| Grid span                                                    FULLSPACE
 PW_GRID|   Distribution                         Average         Max         Min
 PW_GRID|   G-Vectors                             9112.5        9240        9000
 PW_GRID|   G-Rays                                 227.8         231         225
 PW_GRID|   Real Space Points                     9112.5       10935        7290

 POISSON| Solver                                                        PERIODIC
 POISSON| Periodicity                                                        XYZ

 RS_GRID| Information for grid number                                          1
 RS_GRID|   Bounds   1           -108     107                Points:         216
 RS_GRID|   Bounds   2           -216     215                Points:         432
 RS_GRID|   Bounds   3           -108     107                Points:         216
 RS_GRID| Real space distribution over                                 16 groups
 RS_GRID| Real space distribution along direction                              2
 RS_GRID| Border size                                                         35
 RS_GRID|   Distribution                         Average         Max         Min
 RS_GRID|   Planes                                  97.0          97          97

 RS_GRID| Information for grid number                                          2
 RS_GRID|   Bounds   1            -60      59                Points:         120
 RS_GRID|   Bounds   2           -121     121                Points:         243
 RS_GRID|   Bounds   3            -62      62                Points:         125
 RS_GRID| Real space distribution over                                 16 groups
 RS_GRID| Real space distribution along direction                              2
 RS_GRID| Border size                                                         35
 RS_GRID|   Distribution                         Average         Max         Min
 RS_GRID|   Planes                                  85.2          86          85

 RS_GRID| Information for grid number                                          3
 RS_GRID|   Bounds   1            -36      35                Points:          72
 RS_GRID|   Bounds   2            -72      71                Points:         144
 RS_GRID|   Bounds   3            -36      35                Points:          72
 RS_GRID| Real space fully replicated
 RS_GRID| Group size                                                           1

 RS_GRID| Information for grid number                                          4
 RS_GRID|   Bounds   1            -20      19                Points:          40
 RS_GRID|   Bounds   2            -40      40                Points:          81
 RS_GRID|   Bounds   3            -22      22                Points:          45
 RS_GRID| Real space fully replicated
 RS_GRID| Group size                                                           1

 -------------------------------------------------------------------------------
 -                                                                             -
 -  BSSE CALCULATION         FRAGMENT CONF: 10        FRAGMENT SUBCONF: 10     -
 -                           CHARGE =     0           MULTIPLICITY =     0     -
 -                                                                             -
 -                 ATOM INDEX                              ATOM NAME           -
 -                 ----------                              ---------           -
 -                      1                                   C                  -
 -                      2                                   C                  -
 -                      3                                   C                  -
 -                      4                                   C                  -
 -                      5                                   C                  -
 -                      6                                   C                  -
 -                      7                                   C                  -
 -                      8                                   C                  -
 -                      9                                   C                  -
 -                     10                                   C                  -
 -                     11                                   C                  -
 -                     12                                   C                  -
 -                     13                                   C                  -
 -                     14                                   C                  -
 -                     15                                   C                  -
 -                     16                                   C                  -
 -                     17                                   C                  -
 -                     18                                   C                  -
 -                     19                                   C                  -
 -                     20                                   C                  -
 -                     21                                   C                  -
 -                     22                                   C                  -
 -                     23                                   C                  -
 -                     24                                   C                  -
 -                     25                                   C                  -
 -                     26                                   C                  -
 -                     27                                   C                  -
 -                     28                                   C                  -
 -                     29                                   C                  -
 -                     30                                   C                  -
 -                     31                                   C                  -
 -                     32                                   C                  -
 -                     33                                   C                  -
 -                     34                                   C                  -
 -                     35                                   C                  -
 -                     36                                   C                  -
 -                     37                                   C                  -
 -                     38                                   C                  -
 -                     39                                   C                  -
 -                     40                                   C                  -
 -                     41                                   C                  -
 -                     42                                   C                  -
 -                     43                                   C                  -
 -                     44                                   C                  -
 -                     45                                   C                  -
 -                     46                                   C                  -
 -                     47                                   C                  -
 -                     48                                   C                  -
 -                     49                                   C                  -
 -                     50                                   C                  -
 -                     51                                   C                  -
 -                     52                                   C                  -
 -                     53                                   C                  -
 -                     54                                   C                  -
 -                     55                                   C                  -
 -                     56                                   C                  -
 -                     57                                   C                  -
 -                     58                                   C                  -
 -                     59                                   C                  -
 -                     60                                   C                  -
 -                     61                                   C                  -
 -                     62                                   C                  -
 -                     63                                   C                  -
 -                     64                                   C                  -
 -                     65                                   C                  -
 -                     66                                   C                  -
 -                     67                                   C                  -
 -                     68                                   C                  -
 -                     69                                   C                  -
 -                     70                                   C                  -
 -                     71                                   C                  -
 -                     72                                   C                  -
 -                     73                                   C                  -
 -                     74                                   C                  -
 -                     75                                   C                  -
 -                     76                                   C                  -
 -                     77                                   C                  -
 -                     78                                   C                  -
 -                     79                                   C                  -
 -                     80                                   C                  -
 -                     81                                   C                  -
 -                     82                                   C                  -
 -                     83                                   C                  -
 -                     84                                   C                  -
 -                     85                                   C                  -
 -                     86                                   C                  -
 -                     87                                   C                  -
 -                     88                                   C                  -
 -                     89                                   C                  -
 -                     90                                   C                  -
 -                     91                                   C                  -
 -                     92                                   C                  -
 -                     93                                   C                  -
 -                     94                                   C                  -
 -                     95                                   C                  -
 -                     96                                   C                  -
 -                     97                                   C                  -
 -                     98                                   C                  -
 -                     99                                   C                  -
 -                    100                                   C                  -
 -                    101                                   C                  -
 -                    102                                   C                  -
 -                    103                                   C                  -
 -                    104                                   C                  -
 -                    105                                   C                  -
 -                    106                                   C                  -
 -                    107                                   C                  -
 -                    108                                   C                  -
 -                    109                                   C                  -
 -                    110                                   C                  -
 -                    111                                   C                  -
 -                    112                                   C                  -
 -                    113                                   H                  -
 -                    114                                   H                  -
 -                    115                                   H                  -
 -                    116                                   H                  -
 -                    117                                   H                  -
 -                    118                                   H                  -
 -                    119                                   H                  -
 -                    120                                   H                  -
 -                    121                                   H                  -
 -                    122                                   H                  -
 -                    123                                   H                  -
 -                    124                                   H                  -
 -                    125                                   H                  -
 -                    126                                   H                  -
 -                    127                                   H                  -
 -                    128                                   H                  -
 -------------------------------------------------------------------------------

 CELL| Volume [angstrom^3]:                                            13612.534
 CELL| Vector a [angstrom]:      19.648     0.000     0.000    |a| =      19.648
 CELL| Vector b [angstrom]:      20.000    34.641     0.000    |b| =      40.000
 CELL| Vector c [angstrom]:       0.000     0.000    20.000    |c| =      20.000
 CELL| Angle (b,c), alpha [degree]:                                       90.000
 CELL| Angle (a,c), beta  [degree]:                                       90.000
 CELL| Angle (a,b), gamma [degree]:                                       60.000
 CELL| Requested initial symmetry:                                     TRICLINIC
 CELL| Numerically orthorhombic:                                              NO

 CELL_REF| Volume [angstrom^3]:                                        13612.534
 CELL_REF| Vector a [angstrom    19.648     0.000     0.000    |a| =      19.648
 CELL_REF| Vector b [angstrom    20.000    34.641     0.000    |b| =      40.000
 CELL_REF| Vector c [angstrom     0.000     0.000    20.000    |c| =      20.000
 CELL_REF| Angle (b,c), alpha [degree]:                                   90.000
 CELL_REF| Angle (a,c), beta  [degree]:                                   90.000
 CELL_REF| Angle (a,b), gamma [degree]:                                   60.000
 CELL_REF| Requested initial symmetry:                                 TRICLINIC
 CELL_REF| Numerically orthorhombic:                                          NO

 *******************************************************************************
 *******************************************************************************
 **                                                                           **
 **     #####                         ##              ##                      **
 **    ##   ##            ##          ##              ##                      **
 **   ##     ##                       ##            ######                    **
 **   ##     ##  ##   ##  ##   #####  ##  ##   ####   ##    #####    #####    **
 **   ##     ##  ##   ##  ##  ##      ## ##   ##      ##   ##   ##  ##   ##   **
 **   ##  ## ##  ##   ##  ##  ##      ####     ###    ##   ######   ######    **
 **    ##  ###   ##   ##  ##  ##      ## ##      ##   ##   ##       ##        **
 **     #######   #####   ##   #####  ##  ##  ####    ##    #####   ##        **
 **           ##                                                    ##        **
 **                                                                           **
 **                                                ... make the atoms dance   **
 **                                                                           **
 **            Copyright (C) by CP2K developers group (2000 - 2018)           **
 **                                                                           **
 *******************************************************************************

 DFT| Spin unrestricted (spin-polarized) Kohn-Sham calculation               UKS
 DFT| Multiplicity                                                             1
 DFT| Number of spin states                                                    2
 DFT| Charge                                                                   0
 DFT| Self-interaction correction (SIC)                                       NO
 DFT| Cutoffs: density                                              1.000000E-10
 DFT|          gradient                                             1.000000E-10
 DFT|          tau                                                  1.000000E-10
 DFT|          cutoff_smoothing_range                               0.000000E+00
 DFT| XC density smoothing                                                  NONE
 DFT| XC derivatives                                              SPLINE2_SMOOTH
 FUNCTIONAL| ROUTINE=NEW
 FUNCTIONAL| BECKE88:
 FUNCTIONAL| A. Becke, Phys. Rev. A 38, 3098 (1988) {LSD version}               
 FUNCTIONAL| LYP:
 FUNCTIONAL| C. Lee, W. Yang, R.G. Parr, Phys. Rev. B, 37, 785 (1988) {LSD versi
 FUNCTIONAL| on}                                                                
 vdW POTENTIAL|                                                   Pair Potential
 vdW POTENTIAL|          DFT-D3 (Version 3.1)
 vdW POTENTIAL|          Potential Form: S. Grimme et al, JCP 132: 154104 (2010)
 vdW POTENTIAL|          Zero Damping
 vdW POTENTIAL|          Cutoff Radius [Bohr]:                             20.00
 vdW POTENTIAL|          s6 Scaling Factor:                               1.0000
 vdW POTENTIAL|          sr6 Scaling Factor:                              1.0940
 vdW POTENTIAL|          s8 Scaling Factor:                               1.6820
 vdW POTENTIAL|          Cutoff for CN calculation:                   0.1000E-05

 QS| Method:                                                                 GPW
 QS| Density plane wave grid type                        NON-SPHERICAL FULLSPACE
 QS| Number of grid levels:                                                    4
 QS| Density cutoff [a.u.]:                                                150.0
 QS| Multi grid cutoff [a.u.]: 1) grid level                               150.0
 QS|                           2) grid level                                50.0
 QS|                           3) grid level                                16.7
 QS|                           4) grid level                                 5.6
 QS| Grid level progression factor:                                          3.0
 QS| Relative density cutoff [a.u.]:                                        20.0
 QS| Consistent realspace mapping and integration 
 QS| Interaction thresholds: eps_pgf_orb:                                1.0E-06
 QS|                         eps_filter_matrix:                          0.0E+00
 QS|                         eps_core_charge:                            1.0E-14
 QS|                         eps_rho_gspace:                             1.0E-12
 QS|                         eps_rho_rspace:                             1.0E-12
 QS|                         eps_gvg_rspace:                             1.0E-06
 QS|                         eps_ppl:                                    1.0E-02
 QS|                         eps_ppnl:                                   1.0E-08


 ATOMIC KIND INFORMATION

  1. Atomic kind: C                                     Number of atoms:     112

     Orbital Basis Set                                        DZVP-MOLOPT-SR-GTH

       Number of orbital shell sets:                                           1
       Number of orbital shells:                                               5
       Number of primitive Cartesian functions:                                5
       Number of Cartesian basis functions:                                   14
       Number of spherical basis functions:                                   13
       Norm type:                                                              2

       Normalised Cartesian orbitals:

                        Set   Shell   Orbital            Exponent    Coefficient

                          1       1    2s                5.605331       0.322515
                                                         2.113016       0.213043
                                                         0.769911      -0.209686
                                                         0.348157      -0.219794
                                                         0.128212      -0.022789

                          1       2    3s                5.605331       0.552234
                                                         2.113016       0.082072
                                                         0.769911       0.007843
                                                         0.348157       0.136893
                                                         0.128212       0.074283

                          1       3    3px               5.605331      -0.703879
                                                         2.113016      -0.642521
                                                         0.769911      -0.374851
                                                         0.348157      -0.139743
                                                         0.128212      -0.027849
                          1       3    3py               5.605331      -0.703879
                                                         2.113016      -0.642521
                                                         0.769911      -0.374851
                                                         0.348157      -0.139743
                                                         0.128212      -0.027849
                          1       3    3pz               5.605331      -0.703879
                                                         2.113016      -0.642521
                                                         0.769911      -0.374851
                                                         0.348157      -0.139743
                                                         0.128212      -0.027849

                          1       4    4px               5.605331      -0.480376
                                                         2.113016      -0.552894
                                                         0.769911      -0.316145
                                                         0.348157       0.210505
                                                         0.128212       0.076095
                          1       4    4py               5.605331      -0.480376
                                                         2.113016      -0.552894
                                                         0.769911      -0.316145
                                                         0.348157       0.210505
                                                         0.128212       0.076095
                          1       4    4pz               5.605331      -0.480376
                                                         2.113016      -0.552894
                                                         0.769911      -0.316145
                                                         0.348157       0.210505
                                                         0.128212       0.076095

                          1       5    4dx2              5.605331       0.640026
                                                         2.113016       0.274300
                                                         0.769911       0.446711
                                                         0.348157       0.028674
                                                         0.128212       0.029790
                          1       5    4dxy              5.605331       1.108557
                                                         2.113016       0.475102
                                                         0.769911       0.773726
                                                         0.348157       0.049666
                                                         0.128212       0.051599
                          1       5    4dxz              5.605331       1.108557
                                                         2.113016       0.475102
                                                         0.769911       0.773726
                                                         0.348157       0.049666
                                                         0.128212       0.051599
                          1       5    4dy2              5.605331       0.640026
                                                         2.113016       0.274300
                                                         0.769911       0.446711
                                                         0.348157       0.028674
                                                         0.128212       0.029790
                          1       5    4dyz              5.605331       1.108557
                                                         2.113016       0.475102
                                                         0.769911       0.773726
                                                         0.348157       0.049666
                                                         0.128212       0.051599
                          1       5    4dz2              5.605331       0.640026
                                                         2.113016       0.274300
                                                         0.769911       0.446711
                                                         0.348157       0.028674
                                                         0.128212       0.029790

     GTH Potential information for                                    GTH-PBE-q4

       Description:                       Goedecker-Teter-Hutter pseudopotential
                                           Goedecker et al., PRB 54, 1703 (1996)
                                          Hartwigsen et al., PRB 58, 3641 (1998)
                                                      Krack, TCA 114, 145 (2005)

       Gaussian exponent of the core charge distribution:               4.364419
       Electronic configuration (s p d ...):                               2   2

       Parameters of the local part of the GTH pseudopotential:

                          rloc        C1          C2          C3          C4
                        0.338471   -8.803674    1.339211

       Parameters of the non-local part of the GTH pseudopotential:

                   l      r(l)      h(i,j,l)

                   0    0.302576    9.622487
                   1    0.291507

  2. Atomic kind: H                                     Number of atoms:      16

     Orbital Basis Set                                        DZVP-MOLOPT-SR-GTH

       Number of orbital shell sets:                                           1
       Number of orbital shells:                                               3
       Number of primitive Cartesian functions:                                5
       Number of Cartesian basis functions:                                    5
       Number of spherical basis functions:                                    5
       Norm type:                                                              2

       Normalised Cartesian orbitals:

                        Set   Shell   Orbital            Exponent    Coefficient

                          1       1    2s               10.068468      -0.133023
                                                         2.680223      -0.177618
                                                         0.791502      -0.258419
                                                         0.239116      -0.107525
                                                         0.082193      -0.014019

                          1       2    3s               10.068468       0.344673
                                                         2.680223       1.819821
                                                         0.791502      -0.999069
                                                         0.239116       0.017430
                                                         0.082193       0.082660

                          1       3    3px              10.068468       0.155326
                                                         2.680223       0.367157
                                                         0.791502       0.311480
                                                         0.239116       0.080105
[...]

  Total Charge                                                            0.036
 !-----------------------------------------------------------------------------!

 *** WARNING in qs_loc_utils.F:1387 :: User requested the calculation of ***
 *** the localized wavefunction but the section LOCALIZE was not         ***
 *** specified. Localization will not be performed!                      ***


 -------------------------------------------------------------------------------
 ----                             MULTIGRID INFO                            ----
 -------------------------------------------------------------------------------
 count for grid        1:         247221          cutoff [a.u.]          150.00
 count for grid        2:         103969          cutoff [a.u.]           50.00
 count for grid        3:          56498          cutoff [a.u.]           16.67
 count for grid        4:          20205          cutoff [a.u.]            5.56
 total gridlevel count  :         427893

 -------------------------------------------------------------------------------
 -                                                                             -
 -                                 BSSE RESULTS                                -
 -                                                                             -
 -                 CP-corrected Total energy:     -690.892092                  -
 -                                                                             -
 -                       1-body contribution:     -643.698828                  -
 -                       1-body contribution:      -47.158969                  -
 -                                                                             -
 -                       2-body contribution:       -0.034295                  -
 -                 BSSE-free interaction energy:       -0.034295               -
 -------------------------------------------------------------------------------

 -------------------------------------------------------------------------------
 -                                                                             -
 -                                DBCSR STATISTICS                             -
 -                                                                             -
 -------------------------------------------------------------------------------
 COUNTER                                    TOTAL       BLAS       SMM       ACC
 flops     9 x     9 x     8               139968       0.0%    100.0%      0.0%
 flops     9 x     5 x     8               311040       0.0%    100.0%      0.0%
 flops     9 x     5 x     9               349920       0.0%    100.0%      0.0%
 flops     5 x     9 x     8               388800       0.0%    100.0%      0.0%
 flops     9 x     9 x     9               431568       0.0%    100.0%      0.0%
 flops     5 x     9 x     9               437400       0.0%    100.0%      0.0%
 flops     9 x     9 x    76              2068416       0.0%    100.0%      0.0%
 flops     5 x     5 x     8              3110400       0.0%    100.0%      0.0%
 flops     9 x     9 x    32              3359232       0.0%    100.0%      0.0%
 flops     5 x     5 x     9              3499200       0.0%    100.0%      0.0%
 flops     9 x     5 x    76              4596480       0.0%    100.0%      0.0%
 flops     9 x     9 x    80              5456160       0.0%    100.0%      0.0%
 flops     9 x     9 x    81              5524362       0.0%    100.0%      0.0%
 flops     5 x     9 x    76              5745600       0.0%    100.0%      0.0%
 flops     9 x     5 x    32              7464960       0.0%    100.0%      0.0%
 flops     5 x     9 x    32              9331200       0.0%    100.0%      0.0%
 flops    13 x     9 x     8             10108800       0.0%    100.0%      0.0%
 flops     9 x    13 x     8             10108800       0.0%    100.0%      0.0%
 flops     9 x     9 x    64             10471680       0.0%    100.0%      0.0%
 flops    13 x     9 x     9             11372400       0.0%    100.0%      0.0%
 flops     9 x    13 x     9             11372400       0.0%    100.0%      0.0%
 flops     9 x     5 x    80             12124800       0.0%    100.0%      0.0%
 flops     9 x     5 x    81             12276360       0.0%    100.0%      0.0%
 flops     5 x     9 x    80             15156000       0.0%    100.0%      0.0%
 flops     5 x     9 x    81             15345450       0.0%    100.0%      0.0%
 flops     9 x     5 x    64             23270400       0.0%    100.0%      0.0%
 flops     5 x     9 x    64             29088000       0.0%    100.0%      0.0%
 flops     9 x     9 x    96             31415040       0.0%    100.0%      0.0%
 flops     9 x     5 x    96             69811200       0.0%    100.0%      0.0%
 flops    13 x     5 x     8             72558720       0.0%    100.0%      0.0%
 flops     5 x    13 x     8             73008000       0.0%    100.0%      0.0%
 flops     5 x     5 x    32             74649600       0.0%    100.0%      0.0%
 flops    13 x     5 x     9             81628560       0.0%    100.0%      0.0%
 flops     5 x    13 x     9             82134000       0.0%    100.0%      0.0%
 flops     5 x     5 x    76             83174400       0.0%    100.0%      0.0%
 flops     5 x     9 x    96             87264000       0.0%    100.0%      0.0%
 flops     5 x     5 x    80            121248000       0.0%    100.0%      0.0%
 flops     5 x     5 x    81            122763600       0.0%    100.0%      0.0%
 flops    13 x     9 x    76            149385600       0.0%    100.0%      0.0%
 flops     9 x    13 x    76            149385600       0.0%    100.0%      0.0%
 flops    13 x     9 x    32            242611200       0.0%    100.0%      0.0%
 flops     9 x    13 x    32            242611200       0.0%    100.0%      0.0%
 flops     5 x     5 x    64            264038400       0.0%    100.0%      0.0%
 flops    13 x     9 x    80            394056000       0.0%    100.0%      0.0%
 flops     9 x    13 x    80            394056000       0.0%    100.0%      0.0%
 flops    13 x     9 x    81            398981700       0.0%    100.0%      0.0%
 flops     9 x    13 x    81            398981700       0.0%    100.0%      0.0%
 flops    13 x     9 x    64            756288000       0.0%    100.0%      0.0%
 flops     9 x    13 x    64            756288000       0.0%    100.0%      0.0%
 flops     5 x     5 x    96            792115200       0.0%    100.0%      0.0%
 flops    13 x    13 x     8           1661078016       0.0%    100.0%      0.0%
 flops    13 x     5 x    32           1741409280       0.0%    100.0%      0.0%
 flops     5 x    13 x    32           1752192000       0.0%    100.0%      0.0%
 flops    13 x    13 x     9           1868712768       0.0%    100.0%      0.0%
 flops    13 x     5 x    76           1940273920       0.0%    100.0%      0.0%
 flops     5 x    13 x    76           1952288000       0.0%    100.0%      0.0%
 flops    13 x     9 x    96           2268864000       0.0%    100.0%      0.0%
 flops     9 x    13 x    96           2268864000       0.0%    100.0%      0.0%
 flops    13 x     5 x    80           2828446400       0.0%    100.0%      0.0%
 flops     5 x    13 x    80           2845960000       0.0%    100.0%      0.0%
 flops    13 x     5 x    81           2863801980       0.0%    100.0%      0.0%
 flops     5 x    13 x    81           2881534500       0.0%    100.0%      0.0%
 flops    13 x     5 x    64           6159429120       0.0%    100.0%      0.0%
 flops     5 x    13 x    64           6197568000       0.0%    100.0%      0.0%
 flops    13 x     5 x    96          18478287360       0.0%    100.0%      0.0%
 flops     5 x    13 x    96          18592704000       0.0%    100.0%      0.0%
 flops    13 x    13 x    32          39865872384       0.0%    100.0%      0.0%
 flops    13 x    13 x    76          44418456576       0.0%    100.0%      0.0%
 flops    13 x    13 x    80          64751281920       0.0%    100.0%      0.0%
 flops    13 x    13 x    81          65560672944       0.0%    100.0%      0.0%
 flops    13 x    13 x    64         141007067136       0.0%    100.0%      0.0%
 flops    13 x    13 x    96         423021201408       0.0%    100.0%      0.0%
 flops inhomo. stacks                           0       0.0%      0.0%      0.0%
 flops total                       860.977329E+09       0.0%    100.0%      0.0%
 flops max/rank                     55.901909E+09       0.0%    100.0%      0.0%
 matmuls inhomo. stacks                         0       0.0%      0.0%      0.0%
 matmuls total                           38980716       0.0%    100.0%      0.0%
 number of processed stacks                412068       0.0%    100.0%      0.0%
 average stack size                                     0.0      94.6       0.0
 marketing flops                     1.308936E+12
 -------------------------------------------------------------------------------
 # multiplications                           1550
 max memory usage/rank               1.735782E+09
 # max total images/rank                        1
 # max 3D layers                                1
 # MPI messages exchanged                  148800
 MPI messages size (bytes):
  total size                        30.151936E+09
  min size                           0.000000E+00
  max size                         298.752000E+03
  average size                     202.633984E+03
 MPI breakdown and total messages size (bytes):
             size <=      128               16920                        0
       128 < size <=     8192                1128                   730944
      8192 < size <=    32768                5184                136157760
     32768 < size <=   131072               15552               1537781760
    131072 < size <=  4194304              110016              28477290096
   4194304 < size <= 16777216                   0                        0
  16777216 < size                               0                        0
 -------------------------------------------------------------------------------

 MEMORY| Estimated peak process memory [MiB]                                1656

 -------------------------------------------------------------------------------
 ----                             MULTIGRID INFO                            ----
 -------------------------------------------------------------------------------
 count for grid        1:         231040          cutoff [a.u.]          150.00
 count for grid        2:          79680          cutoff [a.u.]           50.00
 count for grid        3:          41920          cutoff [a.u.]           16.67
 count for grid        4:          12160          cutoff [a.u.]            5.56
 total gridlevel count  :         364800

 -------------------------------------------------------------------------------
 -                                                                             -
 -                         MESSAGE PASSING PERFORMANCE                         -
 -                                                                             -
 -------------------------------------------------------------------------------

 ROUTINE             CALLS      AVE VOLUME [Bytes]
 MP_Group             1584
 MP_Bcast             1245                1152625.
 MP_Allreduce        25070                    442.
 MP_Sync               212
 MP_Alltoall         62961               10329779.
 MP_SendRecv         18600                 746496.
 MP_ISendRecv        93300                 251100.
 MP_Wait            320550
 MP_comm_split         188
 MP_ISend           155820                 943437.
 MP_IRecv           155820                 941820.
 MP_Recv               676                 379932.
 MP_Memory          118588
 -------------------------------------------------------------------------------


 -------------------------------------------------------------------------------
 -                                                                             -
 -                           R E F E R E N C E S                               -
 -                                                                             -
 -------------------------------------------------------------------------------
 
 CP2K version 7.0 (Development Version), the CP2K developers group (2018).
 CP2K is freely available from https://www.cp2k.org/ .

 Schuett, Ole; Messmer, Peter; Hutter, Juerg; VandeVondele, Joost. 
 Electronic Structure Calculations on Graphics Processing Units, John Wiley & Sons, Ltd, 173-190 (2016). 
 GPU-Accelerated Sparse Matrix-Matrix Multiplication for Linear Scaling Density Functional Theory.
 http://dx.doi.org/10.1002/9781118670712.ch8


 Borstnik, U; VandeVondele, J; Weber, V; Hutter, J. 
 PARALLEL COMPUTING, 40 (5-6), 47-58 (2014). 
 Sparse matrix multiplication: The distributed block-compressed sparse
 row library.
 http://dx.doi.org/10.1016/j.parco.2014.03.012


 Hutter, J; Iannuzzi, M; Schiffmann, F; VandeVondele, J. 
 WILEY INTERDISCIPLINARY REVIEWS-COMPUTATIONAL MOLECULAR SCIENCE, 4 (1), 15-25 (2014). 
 CP2K: atomistic simulations of condensed matter systems.
 http://dx.doi.org/10.1002/wcms.1159


 Grimme, S; Ehrlich, S; Goerigk, L. 
 JOURNAL OF COMPUTATIONAL CHEMISTRY, 32, 1456 (2011). 
 Effect of the damping function in dispersion corrected density functional theory.
 http://dx.doi.org/10.1002/jcc.21759


 Grimme, S; Antony, J; Ehrlich, S; Krieg, H. 
 JOURNAL OF CHEMICAL PHYSICS, 132 (15), 154104 (2010). 
 A consistent and accurate ab initio parametrization of density
 functional dispersion correction (DFT-D) for the 94 elements H-Pu.
 http://dx.doi.org/10.1063/1.3382344


 VandeVondele, J; Hutter, J. 
 JOURNAL OF CHEMICAL PHYSICS, 127 (11), 114105 (2007). 
 Gaussian basis sets for accurate calculations on molecular systems in
 gas and condensed phases.
 http://dx.doi.org/10.1063/1.2770708


 Krack, M. 
 THEORETICAL CHEMISTRY ACCOUNTS, 114 (1-3), 145-152 (2005). 
 Pseudopotentials for H to Kr optimized for gradient-corrected
 exchange-correlation functionals.
 http://dx.doi.org/10.1007/s00214-005-0655-y


 VandeVondele, J; Krack, M; Mohamed, F; Parrinello, M; Chassaing, T;
 Hutter, J. COMPUTER PHYSICS COMMUNICATIONS, 167 (2), 103-128 (2005). 
 QUICKSTEP: Fast and accurate density functional calculations using a
 mixed Gaussian and plane waves approach.
 http://dx.doi.org/10.1016/j.cpc.2004.12.014


 Frigo, M; Johnson, SG. 
 PROCEEDINGS OF THE IEEE, 93 (2), 216-231 (2005). 
 The design and implementation of FFTW3.
 http://dx.doi.org/10.1109/JPROC.2004.840301


 Hartwigsen, C; Goedecker, S; Hutter, J. 
 PHYSICAL REVIEW B, 58 (7), 3641-3662 (1998). 
 Relativistic separable dual-space Gaussian pseudopotentials from H to Rn.
 http://dx.doi.org/10.1103/PhysRevB.58.3641


 Lippert, G; Hutter, J; Parrinello, M. 
 MOLECULAR PHYSICS, 92 (3), 477-487 (1997). 
 A hybrid Gaussian and plane wave density functional scheme.
 http://dx.doi.org/10.1080/002689797170220


 Goedecker, S; Teter, M; Hutter, J. 
 PHYSICAL REVIEW B, 54 (3), 1703-1710 (1996). 
 Separable dual-space Gaussian pseudopotentials.
 http://dx.doi.org/10.1103/PhysRevB.54.1703


 BECKE, AD. PHYSICAL REVIEW A, 38 (6), 3098-3100 (1988). 
 DENSITY-FUNCTIONAL EXCHANGE-ENERGY APPROXIMATION WITH CORRECT
 ASYMPTOTIC-BEHAVIOR.
 http://dx.doi.org/10.1103/PhysRevA.38.3098


 LEE, CT; YANG, WT; PARR, RG. 
 PHYSICAL REVIEW B, 37 (2), 785-789 (1988). 
 DEVELOPMENT OF THE COLLE-SALVETTI CORRELATION-ENERGY FORMULA INTO A
 FUNCTIONAL OF THE ELECTRON-DENSITY.
 http://dx.doi.org/10.1103/PhysRevB.37.785


 -------------------------------------------------------------------------------
 -                                                                             -
 -                                T I M I N G                                  -
 -                                                                             -
 -------------------------------------------------------------------------------
 SUBROUTINE                       CALLS  ASD         SELF TIME        TOTAL TIME
                                MAXIMUM       AVERAGE  MAXIMUM  AVERAGE  MAXIMUM
 CP2K                                 1  1.0    0.057    0.246 5239.501 5239.534
 qs_energies                          5  2.0    0.004    0.004 5235.604 5235.636
 scf_env_do_scf                       5  3.0    0.002    0.005 5223.013 5223.550
 scf_env_do_scf_inner_loop          775  4.0    0.047    0.169 5223.008 5223.541
 qs_ks_update_qs_env                775  5.0    0.008    0.009 2168.240 2168.284
 rebuild_ks_matrix                  775  6.0    0.002    0.003 2167.315 2167.351
 qs_ks_build_kohn_sham_matrix       775  7.0    0.108    0.120 2167.312 2167.348
 qs_rho_update_rho                  780  5.0    0.007    0.009 1570.328 1570.673
 calculate_rho_elec                1560  6.0  709.489  729.465 1570.321 1570.664
 pw_transfer                      17866  9.0    1.409    1.555 1311.767 1325.894
 fft_wrap_pw1pw2                  16316 10.0    0.172    0.189 1294.596 1308.739
 sum_up_and_integrate               775  8.0    7.810    8.158 1293.568 1293.610
 integrate_v_rspace                1550  9.0  680.653  699.586 1285.755 1286.143
 fft_wrap_pw1pw2_150               6986 10.2  104.596  108.308 1178.895 1194.859
 gspace_mixing                      768  5.0    8.164    8.509 1098.790 1098.797
 fft3d_ps                         16316 12.0  567.705  584.263  922.269  933.501
 density_rs2pw                     1560  7.0    0.094    0.107  815.605  839.207
 broyden_mixing                     768  6.0  738.924  747.898  765.064  774.018
 qs_vxc_create                      775  8.0    0.020    0.023  667.177  670.515
 xc_vxc_pw_create                   775  9.0   57.798   63.487  667.157  670.492
 potential_pw2rs                   1550 10.0    0.777    0.862  577.831  578.277
 rs_pw_transfer                   12460  9.5    0.202    0.245  444.981  463.423
 xc_rho_set_and_dset_create         775 10.0   61.267   63.878  435.631  450.792
 qs_scf_new_mos                     775  5.0    0.016    0.019  387.476  387.629
 eigensolver                       1550  6.0    0.106    0.138  366.441  366.495
 cp_fm_syevd                       1550  7.0    0.011    0.013  291.995  292.050
 cp_fm_syevd_base                  1550  8.0  291.849  291.890  291.849  291.890
 pw_nn_compose_r                   9300 10.5  217.311  224.671  258.397  282.996
 xc_functional_eval                1550 11.0    0.015    0.019  212.148  227.867
 x_to_yz                           8521 13.3  134.182  140.503  205.591  211.351
 rs_pw_transfer_PW2RS_150          1560 12.0  119.074  120.245  173.804  175.303
 lyp_lsd_eval                       775 12.0  150.941  163.459  150.941  163.459
 rs_pw_transfer_RS2PW_150          1570  9.0   99.606  104.353  145.015  162.798
 yz_to_x                           7795 12.6   86.622   91.200  148.685  158.488
 mp_alltoall_z22v                 16316 14.0  133.471  152.636  133.471  152.636
 pw_scatter_p                      8521 12.3  131.809  132.767  131.809  132.767
 pw_gather_p                       7795 11.6  127.068  129.198  127.068  129.198
 mp_waitany                      131020 11.5   98.764  121.236   98.764  121.236
 -------------------------------------------------------------------------------

 The number of warnings for this run is : 7
 
 -------------------------------------------------------------------------------
  **** **** ******  **  PROGRAM ENDED AT                 2023-09-29 20:25:35.935
 ***** ** ***  *** **   PROGRAM RAN ON                                sebnode110
 **    ****   ******    PROGRAM RAN BY                                    luehrs
 ***** **    ** ** **   PROGRAM PROCESS ID                               1796764
  **** **  *******  **  PROGRAM STOPPED IN /home/luehrs/PhD/Sodium-graphene-edge
                                           /graphene_zig-zag/Hydrogen/Sodium
