 DBCSR| CPU Multiplication driver                                           BLAS (U)
 DBCSR| Multrec recursion limit                                              512 (U)
 DBCSR| Multiplication stack size                                           1000 (D)
 DBCSR| Maximum elements for images                                    UNLIMITED (U)
 DBCSR| Multiplicative factor virtual images                                   1 (U)
 DBCSR| Use multiplication densification                                       T (D)
 DBCSR| Multiplication size stacks                                             3 (U)
 DBCSR| Use memory pool for CPU allocation                                     F (U)
 DBCSR| Number of 3D layers                                               SINGLE (U)
 DBCSR| Use MPI memory allocation                                              F (U)
 DBCSR| Use RMA algorithm                                                      F (U)
 DBCSR| Use Communication thread                                               T (U)
 DBCSR| Communication thread load                                             87 (D)
 DBCSR| MPI: My process id                                                     0
 DBCSR| MPI: Number of processes                                              16
 DBCSR| OMP: Current number of threads                                         1
 DBCSR| OMP: Max number of threads                                             1
 DBCSR| Split modifier for TAS multiplication algorithm                  1.0E+00 (U)


  **** **** ******  **  PROGRAM STARTED AT               2025-06-04 02:50:59.695
 ***** ** ***  *** **   PROGRAM STARTED ON                            sebnode103
 **    ****   ******    PROGRAM STARTED BY                                luehrs
 ***** **    ** ** **   PROGRAM PROCESS ID                                734177
  **** **  *******  **  PROGRAM STARTED IN /home/luehrs/PhD/Sodium_batteries/Sod
                                           ium-graphene-edge/Zig_zag_1/Hydrogen/
                                           Sodium

 CP2K| version string:                                       CP2K version 2023.1
 CP2K| source code revision number:                                  git:b888bd8
 CP2K| cp2kflags: omp libint fftw3 libxc elpa parallel scalapack spglib         
 CP2K| is freely available from                            https://www.cp2k.org/
 CP2K| Program compiled at                          Tue Jan 10 19:52:03 UTC 2023
 CP2K| Program compiled on                                            x86-ubc-01
 CP2K| Program compiled for                                Linux-x86_64-gfortran
 CP2K| Data directory path                                       /usr/share/cp2k
 CP2K| Input file name                                         input.zig-zag.inp

 GLOBAL| Force Environment number                                              1
 GLOBAL| Basis set file name                                      ./BASIS_MOLOPT
 GLOBAL| Potential file name                                    ./GTH_POTENTIALS
 GLOBAL| MM Potential file name                                     MM_POTENTIAL
 GLOBAL| Coordinate file name           graphene_zig_zag_hydrogen_sodium_relaxed
 GLOBAL| Method name                                                        CP2K
 GLOBAL| Project name                           graphene_zig_zag_sodium_BSSE_PBE
 GLOBAL| Run type                                                           BSSE
 GLOBAL| FFT library                                                       FFTW3
 GLOBAL| Diagonalization library                                            ELPA
 GLOBAL| DGEMM library                                                      BLAS
 GLOBAL| Minimum number of eigenvectors for ELPA usage                        16
 GLOBAL| Orthonormality check for eigenvectors                          DISABLED
 GLOBAL| Matrix multiplication library                                 ScaLAPACK
 GLOBAL| All-to-all communication in single precision                          F
 GLOBAL| FFTs using library dependent lengths                                  F
 GLOBAL| Grid backend                                                       AUTO
 GLOBAL| Global print level                                               MEDIUM
 GLOBAL| MPI I/O enabled                                                       T
 GLOBAL| Total number of message passing processes                            16
 GLOBAL| Number of threads for this process                                    1
 GLOBAL| This output is from process                                           0
 GLOBAL| Stack size for threads created by OpenMP (OMP_STACKSIZE)        default
 GLOBAL| CPU model name                Intel(R) Xeon(R) CPU E5-2620 v4 @ 2.10GHz

 MEMORY| system memory details [Kb]
 MEMORY|                        rank 0           min           max       average
 MEMORY| MemTotal             65831284      65831284      65831284      65831284
 MEMORY| MemFree              61665008      61665008      61665008      61665008
 MEMORY| Buffers                221528        221528        221528        221528
 MEMORY| Cached                1879788       1879788       1879788       1879788
 MEMORY| Slab                   256400        256400        256400        256400
 MEMORY| SReclaimable           132640        132640        132640        132640
 MEMORY| MemLikelyFree        63898964      63898964      63898964      63898964


 *** Fundamental physical constants (SI units) ***

 *** Literature: B. J. Mohr and B. N. Taylor,
 ***             CODATA recommended values of the fundamental physical
 ***             constants: 2006, Web Version 5.1
 ***             http://physics.nist.gov/constants

 Speed of light in vacuum [m/s]                             2.99792458000000E+08
 Magnetic constant or permeability of vacuum [N/A**2]       1.25663706143592E-06
 Electric constant or permittivity of vacuum [F/m]          8.85418781762039E-12
 Planck constant (h) [J*s]                                  6.62606896000000E-34
 Planck constant (h-bar) [J*s]                              1.05457162825177E-34
 Elementary charge [C]                                      1.60217648700000E-19
 Electron mass [kg]                                         9.10938215000000E-31
 Electron g factor [ ]                                     -2.00231930436220E+00
 Proton mass [kg]                                           1.67262163700000E-27
 Fine-structure constant                                    7.29735253760000E-03
 Rydberg constant [1/m]                                     1.09737315685270E+07
 Avogadro constant [1/mol]                                  6.02214179000000E+23
 Boltzmann constant [J/K]                                   1.38065040000000E-23
 Atomic mass unit [kg]                                      1.66053878200000E-27
 Bohr radius [m]                                            5.29177208590000E-11

 *** Conversion factors ***

 [u] -> [a.u.]                                              1.82288848426455E+03
 [Angstrom] -> [Bohr] = [a.u.]                              1.88972613288564E+00
 [a.u.] = [Bohr] -> [Angstrom]                              5.29177208590000E-01
 [a.u.] -> [s]                                              2.41888432650478E-17
 [a.u.] -> [fs]                                             2.41888432650478E-02
 [a.u.] -> [J]                                              4.35974393937059E-18
 [a.u.] -> [N]                                              8.23872205491840E-08
 [a.u.] -> [K]                                              3.15774647902944E+05
 [a.u.] -> [kJ/mol]                                         2.62549961709828E+03
 [a.u.] -> [kcal/mol]                                       6.27509468713739E+02
 [a.u.] -> [Pa]                                             2.94210107994716E+13
 [a.u.] -> [bar]                                            2.94210107994716E+08
 [a.u.] -> [atm]                                            2.90362800883016E+08
 [a.u.] -> [eV]                                             2.72113838565563E+01
 [a.u.] -> [Hz]                                             6.57968392072181E+15
 [a.u.] -> [1/cm] (wave numbers)                            2.19474631370540E+05
 [a.u./Bohr**2] -> [1/cm]                                   5.14048714338585E+03
 

 CELL_TOP| Volume [angstrom^3]:                                     13612.533707
 CELL_TOP| Vector a [angstrom    19.648     0.000     0.000   |a| =    19.648000
 CELL_TOP| Vector b [angstrom    20.000    34.641     0.000   |b| =    40.000000
 CELL_TOP| Vector c [angstrom     0.000     0.000    20.000   |c| =    20.000000
 CELL_TOP| Angle (b,c), alpha [degree]:                                90.000000
 CELL_TOP| Angle (a,c), beta  [degree]:                                90.000000
 CELL_TOP| Angle (a,b), gamma [degree]:                                60.000000
 CELL_TOP| Requested initial symmetry:                                 TRICLINIC
 CELL_TOP| Numerically orthorhombic:                                          NO
 CELL_TOP| Periodicity                                                       XYZ

 GENERATE|  Preliminary Number of Bonds generated:                             0
 GENERATE|  Achieved consistency in connectivity generation.

 CELL| Volume [angstrom^3]:                                         13612.533707
 CELL| Vector a [angstrom]:      19.648     0.000     0.000   |a| =    19.648000
 CELL| Vector b [angstrom]:      20.000    34.641     0.000   |b| =    40.000000
 CELL| Vector c [angstrom]:       0.000     0.000    20.000   |c| =    20.000000
 CELL| Angle (b,c), alpha [degree]:                                    90.000000
 CELL| Angle (a,c), beta  [degree]:                                    90.000000
 CELL| Angle (a,b), gamma [degree]:                                    60.000000
 CELL| Requested initial symmetry:                                     TRICLINIC
 CELL| Numerically orthorhombic:                                              NO
 CELL| Periodicity                                                           XYZ

 CELL_REF| Volume [angstrom^3]:                                     13612.533707
 CELL_REF| Vector a [angstrom    19.648     0.000     0.000   |a| =    19.648000
 CELL_REF| Vector b [angstrom    20.000    34.641     0.000   |b| =    40.000000
 CELL_REF| Vector c [angstrom     0.000     0.000    20.000   |c| =    20.000000
 CELL_REF| Angle (b,c), alpha [degree]:                                90.000000
 CELL_REF| Angle (a,c), beta  [degree]:                                90.000000
 CELL_REF| Angle (a,b), gamma [degree]:                                60.000000
 CELL_REF| Requested initial symmetry:                                 TRICLINIC
 CELL_REF| Numerically orthorhombic:                                          NO
 CELL_REF| Periodicity                                                       XYZ

 *******************************************************************************
 *******************************************************************************
 **                                                                           **
 **     #####                         ##              ##                      **
 **    ##   ##            ##          ##              ##                      **
 **   ##     ##                       ##            ######                    **
 **   ##     ##  ##   ##  ##   #####  ##  ##   ####   ##    #####    #####    **
 **   ##     ##  ##   ##  ##  ##      ## ##   ##      ##   ##   ##  ##   ##   **
 **   ##  ## ##  ##   ##  ##  ##      ####     ###    ##   ######   ######    **
 **    ##  ###   ##   ##  ##  ##      ## ##      ##   ##   ##       ##        **
 **     #######   #####   ##   #####  ##  ##  ####    ##    #####   ##        **
 **           ##                                                    ##        **
 **                                                                           **
 **                                                ... make the atoms dance   **
 **                                                                           **
 **            Copyright (C) by CP2K developers group (2000-2022)             **
 **                      J. Chem. Phys. 152, 194103 (2020)                    **
 **                                                                           **
 *******************************************************************************

 DFT| Spin unrestricted (spin-polarized) Kohn-Sham calculation               UKS
 DFT| Multiplicity                                                             1
 DFT| Number of spin states                                                    2
 DFT| Charge                                                                   1
 DFT| Self-interaction correction (SIC)                                       NO
 DFT| Cutoffs: density                                              1.000000E-10
 DFT|          gradient                                             1.000000E-10
 DFT|          tau                                                  1.000000E-10
 DFT|          cutoff_smoothing_range                               0.000000E+00
 DFT| XC density smoothing                                                  NONE
 DFT| XC derivatives                                              SPLINE2_SMOOTH

 FUNCTIONAL| PBE:
 FUNCTIONAL| J.P.Perdew, K.Burke, M.Ernzerhof, Phys. Rev. Letter, vol. 77, n 18,
 FUNCTIONAL|  pp. 3865-3868, (1996){spin polarized}                             

 vdW POTENTIAL|                                                   Pair Potential
 vdW POTENTIAL|          DFT-D3 (Version 3.1)
 vdW POTENTIAL|          Potential Form: S. Grimme et al, JCP 132: 154104 (2010)
 vdW POTENTIAL|          Zero Damping
 vdW POTENTIAL|          Cutoff Radius [Bohr]:                             20.00
 vdW POTENTIAL|          s6 Scaling Factor:                               1.0000
 vdW POTENTIAL|          sr6 Scaling Factor:                              1.2170
 vdW POTENTIAL|          s8 Scaling Factor:                               0.7220
 vdW POTENTIAL|          Cutoff for CN calculation:                   0.1000E-05

 QS| Method:                                                                 GPW
 QS| Density plane wave grid type                        NON-SPHERICAL FULLSPACE
 QS| Number of grid levels:                                                    4
 QS| Density cutoff [a.u.]:                                                150.0
 QS| Multi grid cutoff [a.u.]: 1) grid level                               150.0
 QS|                           2) grid level                                50.0
 QS|                           3) grid level                                16.7
 QS|                           4) grid level                                 5.6
 QS| Grid level progression factor:                                          3.0
 QS| Relative density cutoff [a.u.]:                                        20.0
 QS| Interaction thresholds: eps_pgf_orb:                                1.0E-06
 QS|                         eps_filter_matrix:                          0.0E+00
 QS|                         eps_core_charge:                            1.0E-14
 QS|                         eps_rho_gspace:                             1.0E-12
 QS|                         eps_rho_rspace:                             1.0E-12
 QS|                         eps_gvg_rspace:                             1.0E-06
 QS|                         eps_ppl:                                    1.0E-02
 QS|                         eps_ppnl:                                   1.0E-08


 ATOMIC KIND INFORMATION

  1. Atomic kind: C                                     Number of atoms:     112

     Orbital Basis Set                                        DZVP-MOLOPT-SR-GTH

       Number of orbital shell sets:                                           1
       Number of orbital shells:                                               5
       Number of primitive Cartesian functions:                                5
       Number of Cartesian basis functions:                                   14
       Number of spherical basis functions:                                   13
       Norm type:                                                              2

       Normalised Cartesian orbitals:

                        Set   Shell   Orbital            Exponent    Coefficient

                          1       1    2s                5.605331       0.322515
                                                         2.113016       0.213043
                                                         0.769911      -0.209686
                                                         0.348157      -0.219794
                                                         0.128212      -0.022789

                          1       2    3s                5.605331       0.552234
                                                         2.113016       0.082072
                                                         0.769911       0.007843
                                                         0.348157       0.136893
                                                         0.128212       0.074283

                          1       3    3px               5.605331      -0.703879
                                                         2.113016      -0.642521
                                                         0.769911      -0.374851
                                                         0.348157      -0.139743
                                                         0.128212      -0.027849
                          1       3    3py               5.605331      -0.703879
                                                         2.113016      -0.642521
                                                         0.769911      -0.374851
                                                         0.348157      -0.139743
                                                         0.128212      -0.027849
                          1       3    3pz               5.605331      -0.703879
                                                         2.113016      -0.642521
                                                         0.769911      -0.374851
                                                         0.348157      -0.139743
                                                         0.128212      -0.027849

                          1       4    4px               5.605331      -0.480376
                                                         2.113016      -0.552894
                                                         0.769911      -0.316145
                                                         0.348157       0.210505
                                                         0.128212       0.076095
                          1       4    4py               5.605331      -0.480376
                                                         2.113016      -0.552894
                                                         0.769911      -0.316145
                                                         0.348157       0.210505
                                                         0.128212       0.076095
                          1       4    4pz               5.605331      -0.480376
                                                         2.113016      -0.552894
                                                         0.769911      -0.316145
                                                         0.348157       0.210505
                                                         0.128212       0.076095

                          1       5    4dx2              5.605331       0.640026
                                                         2.113016       0.274300
                                                         0.769911       0.446711
                                                         0.348157       0.028674
                                                         0.128212       0.029790
                          1       5    4dxy              5.605331       1.108557
                                                         2.113016       0.475102
                                                         0.769911       0.773726
                                                         0.348157       0.049666
                                                         0.128212       0.051599
                          1       5    4dxz              5.605331       1.108557
                                                         2.113016       0.475102
                                                         0.769911       0.773726
                                                         0.348157       0.049666
                                                         0.128212       0.051599
                          1       5    4dy2              5.605331       0.640026
                                                         2.113016       0.274300
                                                         0.769911       0.446711
                                                         0.348157       0.028674
                                                         0.128212       0.029790
                          1       5    4dyz              5.605331       1.108557
                                                         2.113016       0.475102
                                                         0.769911       0.773726
                                                         0.348157       0.049666
                                                         0.128212       0.051599
                          1       5    4dz2              5.605331       0.640026
                                                         2.113016       0.274300
                                                         0.769911       0.446711
                                                         0.348157       0.028674
                                                         0.128212       0.029790

       Atomic covalent radius [Angstrom]:                                  0.770

       Atomic van der Waals radius [Angstrom]:                             1.700

     GTH Potential information for                                    GTH-PBE-q4

       Description:                       Goedecker-Teter-Hutter pseudopotential
                                           Goedecker et al., PRB 54, 1703 (1996)
                                          Hartwigsen et al., PRB 58, 3641 (1998)
                                                      Krack, TCA 114, 145 (2005)

       Gaussian exponent of the core charge distribution:               4.364419
       Electronic configuration (s p d ...):                               2   2

       Parameters of the local part of the GTH pseudopotential:

                          rloc        C1          C2          C3          C4
                        0.338471   -8.803674    1.339211

       Parameters of the non-local part of the GTH pseudopotential:

                   l      r(l)      h(i,j,l)

                   0    0.302576    9.622487
                   1    0.291507

  2. Atomic kind: H                                     Number of atoms:      16

     Orbital Basis Set                                        DZVP-MOLOPT-SR-GTH

       Number of orbital shell sets:                                           1
       Number of orbital shells:                                               3
       Number of primitive Cartesian functions:                                5
       Number of Cartesian basis functions:                                    5
       Number of spherical basis functions:                                    5
       Norm type:                                                              2

       Normalised Cartesian orbitals:

                        Set   Shell   Orbital            Exponent    Coefficient

                          1       1    2s               10.068468      -0.133023
                                                         2.680223      -0.177618
                                                         0.791502      -0.258419
                                                         0.239116      -0.107525
                                                         0.082193      -0.014019

                          1       2    3s               10.068468       0.344673
                                                         2.680223       1.819821
                                                         0.791502      -0.999069
                                                         0.239116       0.017430
                                                         0.082193       0.082660

                          1       3    3px              10.068468       0.155326
                                                         2.680223       0.367157
                                                         0.791502       0.311480
                                                         0.239116       0.080105
                                                         0.082193       0.033440
                          1       3    3py              10.068468       0.155326
                                                         2.680223       0.367157
                                                         0.791502       0.311480
                                                         0.239116       0.080105
                                                         0.082193       0.033440
                          1       3    3pz              10.068468       0.155326
                                                         2.680223       0.367157
                                                         0.791502       0.311480
                                                         0.239116       0.080105
                                                         0.082193       0.033440

       Atomic covalent radius [Angstrom]:                                  0.320

       Atomic van der Waals radius [Angstrom]:                             1.090

     GTH Potential information for                                    GTH-PBE-q1

       Description:                       Goedecker-Teter-Hutter pseudopotential
                                           Goedecker et al., PRB 54, 1703 (1996)
                                          Hartwigsen et al., PRB 58, 3641 (1998)
                                                      Krack, TCA 114, 145 (2005)

       Gaussian exponent of the core charge distribution:              12.500000
       Electronic configuration (s p d ...):                                   1

       Parameters of the local part of the GTH pseudopotential:

                          rloc        C1          C2          C3          C4
                        0.200000   -4.178900    0.724463

  3. Atomic kind: Na                                    Number of atoms:       1

     Orbital Basis Set                                        DZVP-MOLOPT-SR-GTH

       Number of orbital shell sets:                                           1
       Number of orbital shells:                                               5
       Number of primitive Cartesian functions:                                7
       Number of Cartesian basis functions:                                    9
       Number of spherical basis functions:                                    9
       Norm type:                                                              2

       Normalised Cartesian orbitals:

                        Set   Shell   Orbital            Exponent    Coefficient

                          1       1    2s               23.518801       0.288931
                                                        11.135656       0.787174
                                                         4.647814      -0.190850
                                                         1.866708      -0.573823
                                                         0.734684      -0.276866
                                                         0.275673      -0.024211
                                                         0.049895      -0.000019

                          1       2    3s               23.518801       0.039212
                                                        11.135656       0.138585
                                                         4.647814      -0.048916
                                                         1.866708      -0.102378
                                                         0.734684      -0.139633
                                                         0.275673       0.012767
                                                         0.049895       0.077569

                          1       3    4s               23.518801       0.303698
                                                        11.135656      -0.548845
                                                         4.647814       0.534441
                                                         1.866708      -0.220920
                                                         0.734684       0.980584
                                                         0.275673      -0.653367
                                                         0.049895       0.063703

                          1       4    3px              23.518801      -2.919466
                                                        11.135656      -2.855941
                                                         4.647814      -2.579491
                                                         1.866708      -1.208264
                                                         0.734684      -0.321406
                                                         0.275673      -0.035032
                                                         0.049895      -0.000067
                          1       4    3py              23.518801      -2.919466
                                                        11.135656      -2.855941
                                                         4.647814      -2.579491
                                                         1.866708      -1.208264
                                                         0.734684      -0.321406
                                                         0.275673      -0.035032
                                                         0.049895      -0.000067
                          1       4    3pz              23.518801      -2.919466
                                                        11.135656      -2.855941
                                                         4.647814      -2.579491
                                                         1.866708      -1.208264
                                                         0.734684      -0.321406
                                                         0.275673      -0.035032
                                                         0.049895      -0.000067

                          1       5    4px              23.518801      -0.381914
                                                        11.135656      -0.488169
                                                         4.647814      -0.407378
                                                         1.866708      -0.201739
                                                         0.734684      -0.078845
                                                         0.275673       0.043427
                                                         0.049895       0.031563
                          1       5    4py              23.518801      -0.381914
                                                        11.135656      -0.488169
                                                         4.647814      -0.407378
                                                         1.866708      -0.201739
                                                         0.734684      -0.078845
                                                         0.275673       0.043427
                                                         0.049895       0.031563
                          1       5    4pz              23.518801      -0.381914
                                                        11.135656      -0.488169
                                                         4.647814      -0.407378
                                                         1.866708      -0.201739
                                                         0.734684      -0.078845
                                                         0.275673       0.043427
                                                         0.049895       0.031563

       Atomic covalent radius [Angstrom]:                                  1.540

       Atomic van der Waals radius [Angstrom]:                             2.270

     GTH Potential information for                                    GTH-PBE-q9

       Description:                       Goedecker-Teter-Hutter pseudopotential
                                           Goedecker et al., PRB 54, 1703 (1996)
                                          Hartwigsen et al., PRB 58, 3641 (1998)
                                                      Krack, TCA 114, 145 (2005)

       Gaussian exponent of the core charge distribution:               8.937631
       Electronic configuration (s p d ...):                               3   6

       Parameters of the local part of the GTH pseudopotential:

                          rloc        C1          C2          C3          C4
                        0.236523    0.295105   -0.913885

       Parameters of the non-local part of the GTH pseudopotential:

                   l      r(l)      h(i,j,l)

                   0    0.143560   34.601492
                   1    0.129932  -14.277462


 MOLECULE KIND INFORMATION


 All atoms are their own molecule, skipping detailed information


 TOTAL NUMBERS AND MAXIMUM NUMBERS

  Total number of            - Atomic kinds:                                   3
                             - Atoms:                                        129
                             - Shell sets:                                   129
                             - Shells:                                       613
                             - Primitive Cartesian functions:                647
                             - Cartesian basis functions:                   1657
                             - Spherical basis functions:                   1545

  Maximum angular momentum of- Orbital basis functions:                        2
                             - Local part of the GTH pseudopotential:          2
                             - Non-local part of the GTH pseudopotential:      1


 MODULE QUICKSTEP: ATOMIC COORDINATES IN ANGSTROM

   Atom Kind Element         X             Y             Z       Z(eff)     Mass
      1    1 C     6      8.597040     14.970628      0.043112   4.0000  12.0107
      2    1 C     6      9.825317     15.658979      0.059683   4.0000  12.0107
      3    1 C     6     11.053104     14.971573      0.053452   4.0000  12.0107
      4    1 C     6     12.282477     15.658963      0.047527   4.0000  12.0107
      5    1 C     6     13.509774     14.970678      0.018733   4.0000  12.0107
      6    1 C     6     14.738216     15.658417     -0.020132   4.0000  12.0107
      7    1 C     6     15.966283     14.970840     -0.062139   4.0000  12.0107
      8    1 C     6     17.193371     15.660599     -0.102834   4.0000  12.0107
      9    1 C     6     18.421727     14.972310     -0.129980   4.0000  12.0107
     10    1 C     6     19.650207     15.661136     -0.146544   4.0000  12.0107
     11    1 C     6     20.877807     14.972633     -0.146194   4.0000  12.0107
     12    1 C     6     22.107766     15.659324     -0.136864   4.0000  12.0107
     13    1 C     6     23.335210     14.971160     -0.106765   4.0000  12.0107
     14    1 C     6     24.563023     15.659102     -0.062061   4.0000  12.0107
     15    1 C     6     25.790254     14.971350     -0.020205   4.0000  12.0107
     16    1 C     6     27.017560     15.659102      0.026583   4.0000  12.0107
     17    1 C     6     25.788634     13.520635     -0.034214   4.0000  12.0107
     18    1 C     6     23.332987     13.520468     -0.114925   4.0000  12.0107
     19    1 C     6     20.875265     13.521094     -0.148265   4.0000  12.0107
     20    1 C     6     18.420010     13.519742     -0.127666   4.0000  12.0107
     21    1 C     6     15.965546     13.518644     -0.052223   4.0000  12.0107
     22    1 C     6     14.736135     12.807447     -0.016160   4.0000  12.0107
     23    1 C     6     13.509150     13.519437      0.024410   4.0000  12.0107
     24    1 C     6     12.279076     12.809130      0.045711   4.0000  12.0107
     25    1 C     6     11.051249     13.520191      0.057134   4.0000  12.0107
     26    1 C     6      9.822560     12.807093      0.049310   4.0000  12.0107
     27    1 C     6      8.595397     13.519039      0.040344   4.0000  12.0107
     28    1 C     6      7.365856     12.807790      0.006646   4.0000  12.0107
     29    1 C     6     24.560159     12.809655     -0.073612   4.0000  12.0107
     30    1 C     6     22.103370     12.810916     -0.139429   4.0000  12.0107
     31    1 C     6     19.647078     12.806717     -0.143088   4.0000  12.0107
     32    1 C     6     17.192146     12.805221     -0.094616   4.0000  12.0107
     33    1 C     6     24.555311     11.371606     -0.080103   4.0000  12.0107
     34    1 C     6     23.324676     10.661116     -0.111528   4.0000  12.0107
     35    1 C     6     22.098508     11.373263     -0.133740   4.0000  12.0107
     36    1 C     6     20.872678     10.653312     -0.134764   4.0000  12.0107
     37    1 C     6     19.644650     11.366121     -0.136854   4.0000  12.0107
     38    1 C     6     18.418360     10.645608     -0.115492   4.0000  12.0107
     39    1 C     6     17.190837     11.364376     -0.083790   4.0000  12.0107
     40    1 C     6     15.960860     10.651902     -0.051244   4.0000  12.0107
     41    1 C     6     14.733728     11.368708     -0.011706   4.0000  12.0107
     42    1 C     6     13.501690     10.657463      0.022283   4.0000  12.0107
     43    1 C     6     12.274830     11.370666      0.041807   4.0000  12.0107
     44    1 C     6     11.043972     10.656123      0.045552   4.0000  12.0107
     45    1 C     6      9.816239     11.367904      0.045449   4.0000  12.0107
     46    1 C     6      8.587017     10.652731      0.023066   4.0000  12.0107
     47    1 C     6      7.361781     11.369134     -0.003311   4.0000  12.0107
     48    1 C     6      6.133349     10.655437     -0.040955   4.0000  12.0107
     49    1 C     6      6.130175      9.219389     -0.047750   4.0000  12.0107
     50    1 C     6      7.354698      8.499240     -0.031171   4.0000  12.0107
     51    1 C     6      8.580062      9.218240     -0.001676   4.0000  12.0107
     52    1 C     6      9.809343      8.502240     -0.001810   4.0000  12.0107
     53    1 C     6     11.037727      9.220287      0.028852   4.0000  12.0107
     54    1 C     6     12.265951      8.505579      0.005826   4.0000  12.0107
     55    1 C     6     13.493969      9.224599      0.005896   4.0000  12.0107
     56    1 C     6     14.724625      8.506191     -0.026849   4.0000  12.0107
     57    1 C     6     15.958459      9.216640     -0.043446   4.0000  12.0107
     58    1 C     6     17.188075      8.500741     -0.064564   4.0000  12.0107
     59    1 C     6     18.422609      9.205872     -0.093125   4.0000  12.0107
     60    1 C     6     19.654562      8.494152     -0.090794   4.0000  12.0107
     61    1 C     6     20.874339      9.217594     -0.105983   4.0000  12.0107
     62    1 C     6     22.097978      8.501635     -0.064621   4.0000  12.0107
     63    1 C     6     23.319785      9.230160     -0.087486   4.0000  12.0107
     64    1 C     6     22.097841      7.067091     -0.053989   4.0000  12.0107
     65    1 C     6     20.871210      6.350440     -0.046632   4.0000  12.0107
     66    1 C     6     19.645388      7.062292     -0.068595   4.0000  12.0107
     67    1 C     6     18.414015      6.353783     -0.046449   4.0000  12.0107
     68    1 C     6     17.185653      7.067294     -0.054354   4.0000  12.0107
     69    1 C     6     15.957033      6.354511     -0.045936   4.0000  12.0107
     70    1 C     6     14.728037      7.069974     -0.039463   4.0000  12.0107
     71    1 C     6     13.500326      6.352241     -0.040600   4.0000  12.0107
     72    1 C     6     12.271718      7.067702     -0.027800   4.0000  12.0107
     73    1 C     6     11.043924      6.347955     -0.047820   4.0000  12.0107
     74    1 C     6      9.814220      7.063259     -0.034362   4.0000  12.0107
     75    1 C     6      8.587175      6.344056     -0.056808   4.0000  12.0107
     76    1 C     6      7.358452      7.062084     -0.046104   4.0000  12.0107
     77    1 C     6      6.128728      6.350791     -0.053830   4.0000  12.0107
     78    1 C     6      4.901782      7.070722     -0.053360   4.0000  12.0107
     79    1 C     6      4.900043      8.507847     -0.063648   4.0000  12.0107
     80    1 C     6      3.675770      6.352436     -0.050329   4.0000  12.0107
     81    1 C     6      3.672471      4.914129     -0.032985   4.0000  12.0107
     82    1 C     6      4.896815      4.199200     -0.038999   4.0000  12.0107
     83    1 C     6      6.126625      4.910075     -0.061045   4.0000  12.0107
     84    1 C     6      7.351284      4.191544     -0.093208   4.0000  12.0107
     85    1 C     6      8.585329      4.902348     -0.082919   4.0000  12.0107
     86    1 C     6      9.816671      4.190549     -0.106635   4.0000  12.0107
     87    1 C     6     11.046181      4.905622     -0.077469   4.0000  12.0107
     88    1 C     6     12.278001      4.195124     -0.079187   4.0000  12.0107
     89    1 C     6     13.504339      4.911774     -0.060528   4.0000  12.0107
     90    1 C     6     14.733477      4.201388     -0.048659   4.0000  12.0107
     91    1 C     6     15.959307      4.916144     -0.046230   4.0000  12.0107
     92    1 C     6     17.186611      4.205122     -0.028987   4.0000  12.0107
     93    1 C     6     18.413933      4.916807     -0.036284   4.0000  12.0107
     94    1 C     6     19.639682      4.204669     -0.009576   4.0000  12.0107
     95    1 C     6     20.868074      4.914297     -0.026280   4.0000  12.0107
     96    1 C     6     19.638562      2.755276      0.024573   4.0000  12.0107
     97    1 C     6     18.411942      2.067551      0.029570   4.0000  12.0107
     98    1 C     6     17.185724      2.754825     -0.013258   4.0000  12.0107
     99    1 C     6     15.960477      2.065530     -0.024435   4.0000  12.0107
    100    1 C     6     14.733590      2.750798     -0.045752   4.0000  12.0107
    101    1 C     6     13.507278      2.061475     -0.060080   4.0000  12.0107
    102    1 C     6     12.282455      2.742673     -0.096879   4.0000  12.0107
    103    1 C     6     11.051169      2.049739     -0.133295   4.0000  12.0107
    104    1 C     6      9.818369      2.731808     -0.127219   4.0000  12.0107
    105    1 C     6      8.577198      2.042774     -0.161870   4.0000  12.0107
    106    1 C     6      6.119902      2.058926     -0.049564   4.0000  12.0107
    107    1 C     6      7.342829      2.738081     -0.105132   4.0000  12.0107
    108    1 C     6      4.894874      2.749201     -0.017272   4.0000  12.0107
    109    1 C     6      3.668660      2.064592      0.033738   4.0000  12.0107
    110    1 C     6      2.443521      2.753002      0.029796   4.0000  12.0107
    111    1 C     6      2.445039      4.202128     -0.009739   4.0000  12.0107
    112    1 C     6      1.215942      2.066862      0.052664   4.0000  12.0107
    113    2 H     1     27.018112     16.745266      0.035069   1.0000   1.0079
    114    2 H     1     24.564549     16.745324     -0.052121   1.0000   1.0079
    115    2 H     1     22.110012     16.745710     -0.133773   1.0000   1.0079
    116    2 H     1     17.193778     16.747140     -0.103640   1.0000   1.0079
    117    2 H     1     14.738499     16.744990     -0.025415   1.0000   1.0079
    118    2 H     1     12.283741     16.745391      0.045065   1.0000   1.0079
    119    2 H     1      9.826797     16.745292      0.059633   1.0000   1.0079
    120    2 H     1      1.214478      0.980947      0.082011   1.0000   1.0079
    121    2 H     1      3.665503      0.978777      0.063226   1.0000   1.0079
    122    2 H     1      6.112854      0.972428     -0.032813   1.0000   1.0079
    123    2 H     1      8.573064      0.960591     -0.022656   1.0000   1.0079
    124    2 H     1     11.058209      0.962700     -0.051996   1.0000   1.0079
    125    2 H     1     13.512780      0.974907     -0.049267   1.0000   1.0079
    126    2 H     1     15.962150      0.979207     -0.012011   1.0000   1.0079
    127    2 H     1     18.411539      0.981356      0.052595   1.0000   1.0079
    128    2 H     1     19.652055     16.747530     -0.144871   1.0000   1.0079
    129    3 Na   11      9.528501      1.738665     -2.545973   9.0000  22.9898



 SCF PARAMETERS         Density guess:                                    ATOMIC
                        --------------------------------------------------------
                        max_scf:                                             400
                        max_scf_history:                                       0
                        max_diis:                                              4
                        --------------------------------------------------------
                        eps_scf:                                        3.00E-07
                        eps_scf_history:                                0.00E+00
                        eps_diis:                                       1.00E-01
                        eps_eigval:                                     1.00E-05
                        --------------------------------------------------------
                        level_shift [a.u.]:                             0.000000
                        added MOs                                       100  100
                        --------------------------------------------------------
                        Mixing method:                            BROYDEN_MIXING
                                                charge density mixing in g-space
                        --------------------------------------------------------
                        Smear method:                                FERMI_DIRAC
                        Electronic temperature [K]:                        300.0
                        Electronic temperature [a.u.]:                  9.50E-04
                        Accuracy threshold:                             1.00E-10
                        --------------------------------------------------------
                        Outer loop SCF in use 
                        No variables optimised in outer loop
                        eps_scf                                         1.00E-06
                        max_scf                                              100
                        DIIS optimization
                        DIIS buffer length                                     3
                        step_size                                       5.00E-01

 PW_GRID| Information for grid number                                          1
 PW_GRID| Grid distributed over                                    16 processors
 PW_GRID| Real space group dimensions                                    16    1
 PW_GRID| the grid is blocked:                                                NO
 PW_GRID| Cutoff [a.u.]                                                    150.0
 PW_GRID| spherical cutoff:                                                   NO
 PW_GRID|   Bounds   1           -108     107                Points:         216
 PW_GRID|   Bounds   2           -216     215                Points:         432
 PW_GRID|   Bounds   3           -108     107                Points:         216
 PW_GRID| Volume element (a.u.^3)  0.4558E-02     Volume (a.u.^3)     91861.9320
 PW_GRID| Grid span                                                    FULLSPACE
 PW_GRID|   Distribution                         Average         Max         Min
 PW_GRID|   G-Vectors                          1259712.0     1259712     1259712
 PW_GRID|   G-Rays                                5832.0        5832        5832
 PW_GRID|   Real Space Points                  1259712.0     1306368     1213056

 PW_GRID| Information for grid number                                          2
 PW_GRID| Number of the reference grid                                         1
 PW_GRID| Grid distributed over                                    16 processors
 PW_GRID| Real space group dimensions                                    16    1
 PW_GRID| the grid is blocked:                                                NO
 PW_GRID| Cutoff [a.u.]                                                     50.0
 PW_GRID| spherical cutoff:                                                   NO
 PW_GRID|   Bounds   1            -60      59                Points:         120
 PW_GRID|   Bounds   2           -121     121                Points:         243
 PW_GRID|   Bounds   3            -62      62                Points:         125
 PW_GRID| Volume element (a.u.^3)  0.2520E-01     Volume (a.u.^3)     91861.9320
 PW_GRID| Grid span                                                    FULLSPACE
 PW_GRID|   Distribution                         Average         Max         Min
 PW_GRID|   G-Vectors                           227812.5      228960      226320
 PW_GRID|   G-Rays                                1898.4        1908        1886
 PW_GRID|   Real Space Points                   227812.5      243000      212625

 PW_GRID| Information for grid number                                          3
 PW_GRID| Number of the reference grid                                         1
 PW_GRID| Grid distributed over                                    16 processors
 PW_GRID| Real space group dimensions                                    16    1
 PW_GRID| the grid is blocked:                                                NO
 PW_GRID| Cutoff [a.u.]                                                     16.7
 PW_GRID| spherical cutoff:                                                   NO
 PW_GRID|   Bounds   1            -36      35                Points:          72
 PW_GRID|   Bounds   2            -72      71                Points:         144
 PW_GRID|   Bounds   3            -36      35                Points:          72
 PW_GRID| Volume element (a.u.^3)  0.1231         Volume (a.u.^3)     91861.9320
 PW_GRID| Grid span                                                    FULLSPACE
 PW_GRID|   Distribution                         Average         Max         Min
 PW_GRID|   G-Vectors                            46656.0       46944       46512
 PW_GRID|   G-Rays                                 648.0         652         646
 PW_GRID|   Real Space Points                    46656.0       51840       41472

 PW_GRID| Information for grid number                                          4
 PW_GRID| Number of the reference grid                                         1
 PW_GRID| Grid distributed over                                    16 processors
 PW_GRID| Real space group dimensions                                    16    1
 PW_GRID| the grid is blocked:                                                NO
 PW_GRID| Cutoff [a.u.]                                                      5.6
 PW_GRID| spherical cutoff:                                                   NO
 PW_GRID|   Bounds   1            -20      19                Points:          40
 PW_GRID|   Bounds   2            -40      40                Points:          81
 PW_GRID|   Bounds   3            -22      22                Points:          45
 PW_GRID| Volume element (a.u.^3)  0.6301         Volume (a.u.^3)     91861.9320
 PW_GRID| Grid span                                                    FULLSPACE
 PW_GRID|   Distribution                         Average         Max         Min
 PW_GRID|   G-Vectors                             9112.5        9240        9000
 PW_GRID|   G-Rays                                 227.8         231         225
 PW_GRID|   Real Space Points                     9112.5       10935        7290

 POISSON| Solver                                                        PERIODIC
 POISSON| Periodicity                                                        XYZ

 RS_GRID| Information for grid number                                          1
 RS_GRID|   Bounds   1           -108     107                Points:         216
 RS_GRID|   Bounds   2           -216     215                Points:         432
 RS_GRID|   Bounds   3           -108     107                Points:         216
 RS_GRID| Real space distribution over                                 16 groups
 RS_GRID| Real space distribution along direction                              2
 RS_GRID| Border size                                                         35
 RS_GRID|   Distribution                         Average         Max         Min
 RS_GRID|   Planes                                  97.0          97          97

 RS_GRID| Information for grid number                                          2
 RS_GRID|   Bounds   1            -60      59                Points:         120
 RS_GRID|   Bounds   2           -121     121                Points:         243
 RS_GRID|   Bounds   3            -62      62                Points:         125
 RS_GRID| Real space distribution over                                 16 groups
 RS_GRID| Real space distribution along direction                              2
 RS_GRID| Border size                                                         35
 RS_GRID|   Distribution                         Average         Max         Min
 RS_GRID|   Planes                                  85.2          86          85

 RS_GRID| Information for grid number                                          3
 RS_GRID|   Bounds   1            -36      35                Points:          72
 RS_GRID|   Bounds   2            -72      71                Points:         144
 RS_GRID|   Bounds   3            -36      35                Points:          72
 RS_GRID| Real space fully replicated
 RS_GRID| Group size                                                           1

 RS_GRID| Information for grid number                                          4
 RS_GRID|   Bounds   1            -20      19                Points:          40
 RS_GRID|   Bounds   2            -40      40                Points:          81
 RS_GRID|   Bounds   3            -22      22                Points:          45
 RS_GRID| Real space fully replicated
 RS_GRID| Group size                                                           1

 -------------------------------------------------------------------------------
 -                                                                             -
 -  BSSE CALCULATION         FRAGMENT CONF: 10        FRAGMENT SUBCONF: 10     -
 -                           CHARGE =     0           MULTIPLICITY =     0     -
 -                                                                             -
 -                 ATOM INDEX                              ATOM NAME           -
 -                 ----------                              ---------           -
 -                      1                                   C                  -
 -                      2                                   C                  -
 -                      3                                   C                  -
 -                      4                                   C                  -
 -                      5                                   C                  -
 -                      6                                   C                  -
 -                      7                                   C                  -
 -                      8                                   C                  -
 -                      9                                   C                  -
 -                     10                                   C                  -
 -                     11                                   C                  -
 -                     12                                   C                  -
 -                     13                                   C                  -
 -                     14                                   C                  -
 -                     15                                   C                  -
 -                     16                                   C                  -
 -                     17                                   C                  -
 -                     18                                   C                  -
 -                     19                                   C                  -
 -                     20                                   C                  -
 -                     21                                   C                  -
 -                     22                                   C                  -
 -                     23                                   C                  -
 -                     24                                   C                  -
 -                     25                                   C                  -
 -                     26                                   C                  -
 -                     27                                   C                  -
 -                     28                                   C                  -
 -                     29                                   C                  -
 -                     30                                   C                  -
 -                     31                                   C                  -
 -                     32                                   C                  -
 -                     33                                   C                  -
 -                     34                                   C                  -
 -                     35                                   C                  -
 -                     36                                   C                  -
 -                     37                                   C                  -
 -                     38                                   C                  -
 -                     39                                   C                  -
 -                     40                                   C                  -
 -                     41                                   C                  -
 -                     42                                   C                  -
 -                     43                                   C                  -
 -                     44                                   C                  -
 -                     45                                   C                  -
 -                     46                                   C                  -
 -                     47                                   C                  -
 -                     48                                   C                  -
 -                     49                                   C                  -
 -                     50                                   C                  -
 -                     51                                   C                  -
 -                     52                                   C                  -
 -                     53                                   C                  -
 -                     54                                   C                  -
 -                     55                                   C                  -
 -                     56                                   C                  -
 -                     57                                   C                  -
 -                     58                                   C                  -
 -                     59                                   C                  -
 -                     60                                   C                  -
 -                     61                                   C                  -
 -                     62                                   C                  -
 -                     63                                   C                  -
 -                     64                                   C                  -
 -                     65                                   C                  -
 -                     66                                   C                  -
 -                     67                                   C                  -
 -                     68                                   C                  -
 -                     69                                   C                  -
 -                     70                                   C                  -
 -                     71                                   C                  -
 -                     72                                   C                  -
 -                     73                                   C                  -
 -                     74                                   C                  -
 -                     75                                   C                  -
 -                     76                                   C                  -
 -                     77                                   C                  -
 -                     78                                   C                  -
 -                     79                                   C                  -
 -                     80                                   C                  -
 -                     81                                   C                  -
 -                     82                                   C                  -
 -                     83                                   C                  -
 -                     84                                   C                  -
 -                     85                                   C                  -
 -                     86                                   C                  -
 -                     87                                   C                  -
 -                     88                                   C                  -
 -                     89                                   C                  -
 -                     90                                   C                  -
 -                     91                                   C                  -
 -                     92                                   C                  -
 -                     93                                   C                  -
 -                     94                                   C                  -
 -                     95                                   C                  -
 -                     96                                   C                  -
 -                     97                                   C                  -
 -                     98                                   C                  -
 -                     99                                   C                  -
 -                    100                                   C                  -
 -                    101                                   C                  -
 -                    102                                   C                  -
 -                    103                                   C                  -
 -                    104                                   C                  -
 -                    105                                   C                  -
 -                    106                                   C                  -
 -                    107                                   C                  -
 -                    108                                   C                  -
 -                    109                                   C                  -
 -                    110                                   C                  -
 -                    111                                   C                  -
 -                    112                                   C                  -
 -                    113                                   H                  -
 -                    114                                   H                  -
 -                    115                                   H                  -
 -                    116                                   H                  -
 -                    117                                   H                  -
 -                    118                                   H                  -
 -                    119                                   H                  -
 -                    120                                   H                  -
 -                    121                                   H                  -
 -                    122                                   H                  -
 -                    123                                   H                  -
 -                    124                                   H                  -
 -                    125                                   H                  -
 -                    126                                   H                  -
 -                    127                                   H                  -
 -                    128                                   H                  -
 -------------------------------------------------------------------------------

 CELL| Volume [angstrom^3]:                                         13612.533707
 CELL| Vector a [angstrom]:      19.648     0.000     0.000   |a| =    19.648000
 CELL| Vector b [angstrom]:      20.000    34.641     0.000   |b| =    40.000000
 CELL| Vector c [angstrom]:       0.000     0.000    20.000   |c| =    20.000000
 CELL| Angle (b,c), alpha [degree]:                                    90.000000
 CELL| Angle (a,c), beta  [degree]:                                    90.000000
 CELL| Angle (a,b), gamma [degree]:                                    60.000000
 CELL| Requested initial symmetry:                                     TRICLINIC
 CELL| Numerically orthorhombic:                                              NO
 CELL| Periodicity                                                           XYZ

 CELL_REF| Volume [angstrom^3]:                                     13612.533707
 CELL_REF| Vector a [angstrom    19.648     0.000     0.000   |a| =    19.648000
 CELL_REF| Vector b [angstrom    20.000    34.641     0.000   |b| =    40.000000
 CELL_REF| Vector c [angstrom     0.000     0.000    20.000   |c| =    20.000000
 CELL_REF| Angle (b,c), alpha [degree]:                                90.000000
 CELL_REF| Angle (a,c), beta  [degree]:                                90.000000
 CELL_REF| Angle (a,b), gamma [degree]:                                60.000000
 CELL_REF| Requested initial symmetry:                                 TRICLINIC
 CELL_REF| Numerically orthorhombic:                                          NO
 CELL_REF| Periodicity                                                       XYZ

 *******************************************************************************
 *******************************************************************************
 **                                                                           **
 **     #####                         ##              ##                      **
 **    ##   ##            ##          ##              ##                      **
 **   ##     ##                       ##            ######                    **
 **   ##     ##  ##   ##  ##   #####  ##  ##   ####   ##    #####    #####    **
 **   ##     ##  ##   ##  ##  ##      ## ##   ##      ##   ##   ##  ##   ##   **
 **   ##  ## ##  ##   ##  ##  ##      ####     ###    ##   ######   ######    **
 **    ##  ###   ##   ##  ##  ##      ## ##      ##   ##   ##       ##        **
 **     #######   #####   ##   #####  ##  ##  ####    ##    #####   ##        **
 **           ##                                                    ##        **
 **                                                                           **
 **                                                ... make the atoms dance   **
 **                                                                           **
 **            Copyright (C) by CP2K developers group (2000-2022)             **
 **                      J. Chem. Phys. 152, 194103 (2020)                    **
 **                                                                           **
 *******************************************************************************

 DFT| Spin unrestricted (spin-polarized) Kohn-Sham calculation               UKS
 DFT| Multiplicity                                                             1
 DFT| Number of spin states                                                    2
 DFT| Charge                                                                   0
 DFT| Self-interaction correction (SIC)                                       NO
 DFT| Cutoffs: density                                              1.000000E-10
 DFT|          gradient                                             1.000000E-10
 DFT|          tau                                                  1.000000E-10
 DFT|          cutoff_smoothing_range                               0.000000E+00
 DFT| XC density smoothing                                                  NONE
 DFT| XC derivatives                                              SPLINE2_SMOOTH

 FUNCTIONAL| PBE:
 FUNCTIONAL| J.P.Perdew, K.Burke, M.Ernzerhof, Phys. Rev. Letter, vol. 77, n 18,
 FUNCTIONAL|  pp. 3865-3868, (1996){spin polarized}                             

 vdW POTENTIAL|                                                   Pair Potential
 vdW POTENTIAL|          DFT-D3 (Version 3.1)
 vdW POTENTIAL|          Potential Form: S. Grimme et al, JCP 132: 154104 (2010)
 vdW POTENTIAL|          Zero Damping
 vdW POTENTIAL|          Cutoff Radius [Bohr]:                             20.00
 vdW POTENTIAL|          s6 Scaling Factor:                               1.0000
 vdW POTENTIAL|          sr6 Scaling Factor:                              1.2170
 vdW POTENTIAL|          s8 Scaling Factor:                               0.7220
 vdW POTENTIAL|          Cutoff for CN calculation:                   0.1000E-05

 QS| Method:                                                                 GPW
 QS| Density plane wave grid type                        NON-SPHERICAL FULLSPACE
 QS| Number of grid levels:                                                    4
 QS| Density cutoff [a.u.]:                                                150.0
 QS| Multi grid cutoff [a.u.]: 1) grid level                               150.0
 QS|                           2) grid level                                50.0
 QS|                           3) grid level                                16.7
 QS|                           4) grid level                                 5.6
 QS| Grid level progression factor:                                          3.0
 QS| Relative density cutoff [a.u.]:                                        20.0
 QS| Interaction thresholds: eps_pgf_orb:                                1.0E-06
 QS|                         eps_filter_matrix:                          0.0E+00
 QS|                         eps_core_charge:                            1.0E-14
 QS|                         eps_rho_gspace:                             1.0E-12
 QS|                         eps_rho_rspace:                             1.0E-12
 QS|                         eps_gvg_rspace:                             1.0E-06
 QS|                         eps_ppl:                                    1.0E-02
 QS|                         eps_ppnl:                                   1.0E-08


 ATOMIC KIND INFORMATION

  1. Atomic kind: C                                     Number of atoms:     112

     Orbital Basis Set                                        DZVP-MOLOPT-SR-GTH

       Number of orbital shell sets:                                           1
       Number of orbital shells:                                               5
       Number of primitive Cartesian functions:                                5
       Number of Cartesian basis functions:                                   14
       Number of spherical basis functions:                                   13
       Norm type:                                                              2

       Normalised Cartesian orbitals:

                        Set   Shell   Orbital            Exponent    Coefficient

                          1       1    2s                5.605331       0.322515
                                                         2.113016       0.213043
                                                         0.769911      -0.209686
                                                         0.348157      -0.219794
                                                         0.128212      -0.022789

                          1       2    3s                5.605331       0.552234
                                                         2.113016       0.082072
                                                         0.769911       0.007843
                                                         0.348157       0.136893
                                                         0.128212       0.074283

                          1       3    3px               5.605331      -0.703879
                                                         2.113016      -0.642521
                                                         0.769911      -0.374851
                                                         0.348157      -0.139743
                                                         0.128212      -0.027849
                          1       3    3py               5.605331      -0.703879
                                                         2.113016      -0.642521
                                                         0.769911      -0.374851
                                                         0.348157      -0.139743
                                                         0.128212      -0.027849
                          1       3    3pz               5.605331      -0.703879
                                                         2.113016      -0.642521
                                                         0.769911      -0.374851
                                                         0.348157      -0.139743
                                                         0.128212      -0.027849

                          1       4    4px               5.605331      -0.480376
                                                         2.113016      -0.552894
                                                         0.769911      -0.316145
                                                         0.348157       0.210505
                                                         0.128212       0.076095
                          1       4    4py               5.605331      -0.480376
                                                         2.113016      -0.552894
                                                         0.769911      -0.316145
                                                         0.348157       0.210505
                                                         0.128212       0.076095
                          1       4    4pz               5.605331      -0.480376
                                                         2.113016      -0.552894
                                                         0.769911      -0.316145
                                                         0.348157       0.210505
                                                         0.128212       0.076095

                          1       5    4dx2              5.605331       0.640026
                                                         2.113016       0.274300
                                                         0.769911       0.446711
                                                         0.348157       0.028674
                                                         0.128212       0.029790
                          1       5    4dxy              5.605331       1.108557
                                                         2.113016       0.475102
                                                         0.769911       0.773726
                                                         0.348157       0.049666
                                                         0.128212       0.051599
                          1       5    4dxz              5.605331       1.108557
                                                         2.113016       0.475102
                                                         0.769911       0.773726
                                                         0.348157       0.049666
                                                         0.128212       0.051599
                          1       5    4dy2              5.605331       0.640026
                                                         2.113016       0.274300
                                                         0.769911       0.446711
                                                         0.348157       0.028674
                                                         0.128212       0.029790
                          1       5    4dyz              5.605331       1.108557
                                                         2.113016       0.475102
                                                         0.769911       0.773726
                                                         0.348157       0.049666
                                                         0.128212       0.051599
                          1       5    4dz2              5.605331       0.640026
                                                         2.113016       0.274300
                                                         0.769911       0.446711
                                                         0.348157       0.028674
                                                         0.128212       0.029790

       Atomic covalent radius [Angstrom]:                                  0.770

       Atomic van der Waals radius [Angstrom]:                             1.700

     GTH Potential information for                                    GTH-PBE-q4

       Description:                       Goedecker-Teter-Hutter pseudopotential
                                           Goedecker et al., PRB 54, 1703 (1996)
                                          Hartwigsen et al., PRB 58, 3641 (1998)
                                                      Krack, TCA 114, 145 (2005)

       Gaussian exponent of the core charge distribution:               4.364419
       Electronic configuration (s p d ...):                               2   2

[...]
  Total charge density g-space grids:          -0.0001244881

  Overlap energy of the core charge distribution:               0.00002396209959
  Self energy of the core charge distribution:              -1612.69496133404027
  Core Hamiltonian energy:                                    505.35323660495300
  Hartree energy:                                             621.53994687564432
  Exchange-correlation energy:                               -208.40086930471216
  Dispersion energy:                                           -0.13359774517923
  Electronic entropic energy:                                  -0.00160190761419
  Fermi energy:                                                -0.10905453707716

  Total energy:                                              -694.33781105335447

  outer SCF iter =   45 RMS gradient =   0.54E-02 energy =       -694.3378110534
     1 Broy./Diag. 0.10E+00   16.6     0.12157289      -694.3475712248 -9.76E-03
     2 Broy./Diag. 0.10E+00    9.1     0.12301459      -694.5330174523 -1.85E-01
     3 Broy./Diag. 0.10E+00    9.1     0.01162331      -694.3380230297  1.95E-01
     4 Broy./Diag. 0.10E+00    9.1     0.01129808      -694.3325324828  5.49E-03
     5 Broy./Diag. 0.10E+00    9.1     0.00928599      -694.3362637228 -3.73E-03
     6 Broy./Diag. 0.10E+00    9.1     0.00460069      -694.3349980776  1.27E-03
     7 Broy./Diag. 0.10E+00    9.1     0.01028630      -694.3371488319 -2.15E-03
     8 Broy./Diag. 0.10E+00    9.1     0.01886938      -694.3376086161 -4.60E-04
     9 Broy./Diag. 0.10E+00    9.1     0.00662371      -694.3271627878  1.04E-02
    10 Broy./Diag. 0.10E+00    9.1     0.00420933      -694.3290842260 -1.92E-03
    11 Broy./Diag. 0.10E+00    9.1     0.02651611      -694.3253858400  3.70E-03
    12 Broy./Diag. 0.10E+00    9.1     0.00539606      -694.3402507306 -1.49E-02
    13 Broy./Diag. 0.10E+00    9.1     0.00637919      -694.3392099500  1.04E-03
    14 Broy./Diag. 0.10E+00    9.1     0.00702452      -694.3374407471  1.77E-03
    15 Broy./Diag. 0.10E+00    9.1     0.00387700      -694.3344292613  3.01E-03
    16 Broy./Diag. 0.10E+00    9.1     0.01322821      -694.3360634865 -1.63E-03
    17 Broy./Diag. 0.10E+00    9.1     0.00778873      -694.3328004162  3.26E-03
    18 Broy./Diag. 0.10E+00    9.1     0.00330271      -694.3303132695  2.49E-03
    19 Broy./Diag. 0.10E+00    9.1     0.00725003      -694.3283631762  1.95E-03
    20 Broy./Diag. 0.10E+00    9.1     0.01556926      -694.3277728182  5.90E-04
    21 Broy./Diag. 0.10E+00    9.1     0.00968595      -694.3409605892 -1.32E-02
    22 Broy./Diag. 0.10E+00    9.1     0.00782824      -694.3344028951  6.56E-03
    23 Broy./Diag. 0.10E+00    9.1     0.00551193      -694.3350696710 -6.67E-04
    24 Broy./Diag. 0.10E+00    9.1     0.00439102      -694.3342021678  8.68E-04
    25 Broy./Diag. 0.10E+00    9.1     0.01552162      -694.3374331279 -3.23E-03
    26 Broy./Diag. 0.10E+00    9.1     0.02610522      -694.3272922889  1.01E-02
    27 Broy./Diag. 0.10E+00    9.1     0.01166954      -694.3389584622 -1.17E-02
    28 Broy./Diag. 0.10E+00    9.1     0.02304890      -694.3442844586 -5.33E-03
    29 Broy./Diag. 0.10E+00    9.1     0.00587155      -694.3329212490  1.14E-02
    30 Broy./Diag. 0.10E+00    9.1     0.00511592      -694.3315929657  1.33E-03
    31 Broy./Diag. 0.10E+00    9.1     0.01332956      -694.3314709047  1.22E-04
    32 Broy./Diag. 0.10E+00    9.1     0.00279728      -694.3268386393  4.63E-03
    33 Broy./Diag. 0.10E+00    9.1     0.00476977      -694.3252704362  1.57E-03
    34 Broy./Diag. 0.10E+00    9.1     0.02215755      -694.3321099563 -6.84E-03
    35 Broy./Diag. 0.10E+00    9.1     0.01182169      -694.3233258080  8.78E-03
    36 Broy./Diag. 0.10E+00    9.1     0.00397991      -694.3234179729 -9.22E-05
    37 Broy./Diag. 0.10E+00    9.1     0.02771772      -694.3162165870  7.20E-03
    38 Broy./Diag. 0.10E+00    9.1     0.02678706      -694.3194240262 -3.21E-03
    39 Broy./Diag. 0.10E+00    9.1     0.00628600      -694.3260068041 -6.58E-03
    40 Broy./Diag. 0.10E+00    9.1     0.00988331      -694.3274587490 -1.45E-03
    41 Broy./Diag. 0.10E+00    9.1     0.01034777      -694.3325577419 -5.10E-03
    42 Broy./Diag. 0.10E+00    9.1     0.01295282      -694.3314640456  1.09E-03
    43 Broy./Diag. 0.10E+00    9.1     0.01404086      -694.3250738498  6.39E-03
    44 Broy./Diag. 0.10E+00    9.1     0.02512425      -694.3326405999 -7.57E-03
    45 Broy./Diag. 0.10E+00    9.1     0.00361950      -694.3477239933 -1.51E-02
    46 Broy./Diag. 0.10E+00    9.1     0.01755736      -694.3517289669 -4.00E-03
    47 Broy./Diag. 0.10E+00    9.1     0.01959127      -694.3453868395  6.34E-03
    48 Broy./Diag. 0.10E+00    9.1     0.01252410      -694.3388772964  6.51E-03
    49 Broy./Diag. 0.10E+00    9.1     0.00066971      -694.3435710158 -4.69E-03
    50 Broy./Diag. 0.10E+00    9.1     0.00534604      -694.3429787139  5.92E-04
    51 Broy./Diag. 0.10E+00    9.1     0.00290963      -694.3408205749  2.16E-03
    52 Broy./Diag. 0.10E+00    9.1     0.00371776      -694.3424172013 -1.60E-03
    53 Broy./Diag. 0.10E+00    9.1     0.01463130      -694.3429860801 -5.69E-04
    54 Broy./Diag. 0.10E+00    9.1     0.00202944      -694.3379251657  5.06E-03
    55 Broy./Diag. 0.10E+00    9.1     0.01545821      -694.3379785326 -5.34E-05
    56 Broy./Diag. 0.10E+00    9.1     0.00643019      -694.3348486129  3.13E-03
    57 Broy./Diag. 0.10E+00    9.1     0.02508164      -694.3336318989  1.22E-03
    58 Broy./Diag. 0.10E+00    9.1     0.01052322      -694.3431482044 -9.52E-03
    59 Broy./Diag. 0.10E+00    9.1     0.00315550      -694.3407532286  2.39E-03
    60 Broy./Diag. 0.10E+00    9.1     0.02165293      -694.3410102465 -2.57E-04
    61 Broy./Diag. 0.10E+00    9.1     0.01386900      -694.3354817414  5.53E-03
    62 Broy./Diag. 0.10E+00    9.1     0.01348145      -694.3299807290  5.50E-03
    63 Broy./Diag. 0.10E+00    9.1     0.00374075      -694.3318126238 -1.83E-03
    64 Broy./Diag. 0.10E+00    9.1     0.01334821      -694.3311790789  6.34E-04
    65 Broy./Diag. 0.10E+00    9.1     0.01652140      -694.3334168958 -2.24E-03
    66 Broy./Diag. 0.10E+00    9.1     0.02371540      -694.3370807717 -3.66E-03
    67 Broy./Diag. 0.10E+00    9.1     0.00338903      -694.3419485548 -4.87E-03
    68 Broy./Diag. 0.10E+00    9.1     0.00771949      -694.3418680152  8.05E-05
    69 Broy./Diag. 0.10E+00    9.1     0.00898417      -694.3392919184  2.58E-03
    70 Broy./Diag. 0.10E+00    9.1     0.01482909      -694.3362655026  3.03E-03
    71 Broy./Diag. 0.10E+00    9.1     0.00438113      -694.3318598164  4.41E-03
    72 Broy./Diag. 0.10E+00    9.1     0.02250076      -694.3289827348  2.88E-03
    73 Broy./Diag. 0.10E+00    9.1     0.01438401      -694.3409837380 -1.20E-02
    74 Broy./Diag. 0.10E+00    9.1     0.02755613      -694.3657846790 -2.48E-02
    75 Broy./Diag. 0.10E+00    9.1     0.05044733      -694.3944073172 -2.86E-02
    76 Broy./Diag. 0.10E+00    9.1     0.01635886      -694.3896845621  4.72E-03
    77 Broy./Diag. 0.10E+00    9.1     0.02086864      -694.3696942910  2.00E-02
    78 Broy./Diag. 0.10E+00    9.1     0.00686796      -694.3629584695  6.74E-03
    79 Broy./Diag. 0.10E+00    9.1     0.00494251      -694.3619585775  1.00E-03
    80 Broy./Diag. 0.10E+00    9.1     0.01435976      -694.3631479014 -1.19E-03
    81 Broy./Diag. 0.10E+00    9.1     0.01132811      -694.3665855731 -3.44E-03
    82 Broy./Diag. 0.10E+00    9.1     0.00860999      -694.3626292674  3.96E-03
    83 Broy./Diag. 0.10E+00    9.1     0.03499268      -694.3638020117 -1.17E-03
    84 Broy./Diag. 0.10E+00    9.1     0.01549444      -694.3533074061  1.05E-02
    85 Broy./Diag. 0.10E+00    9.1     0.06606188      -694.3682749420 -1.50E-02
    86 Broy./Diag. 0.10E+00    9.1     0.09518141      -694.3388967128  2.94E-02
    87 Broy./Diag. 0.10E+00    9.1     0.01180421      -694.3552729631 -1.64E-02
    88 Broy./Diag. 0.10E+00    9.1     0.09801807      -694.3864540878 -3.12E-02
    89 Broy./Diag. 0.10E+00    9.1     0.00573289      -694.3534628055  3.30E-02
    90 Broy./Diag. 0.10E+00    9.1     0.04065512      -694.3608763631 -7.41E-03
    91 Broy./Diag. 0.10E+00    9.1     0.04919491      -694.3459985936  1.49E-02
    92 Broy./Diag. 0.10E+00    9.1     0.03418374      -694.3683311582 -2.23E-02
    93 Broy./Diag. 0.10E+00    9.1     0.07362351      -694.3615942574  6.74E-03
    94 Broy./Diag. 0.10E+00    9.1     0.00955808      -694.3621102724 -5.16E-04
    95 Broy./Diag. 0.10E+00    9.1     0.04269121      -694.3700472036 -7.94E-03
    96 Broy./Diag. 0.10E+00    9.1     0.04672771      -694.3568764529  1.32E-02
    97 Broy./Diag. 0.10E+00    9.1     0.02720205      -694.3606211253 -3.74E-03
    98 Broy./Diag. 0.10E+00    9.1     0.00662941      -694.3551724113  5.45E-03
    99 Broy./Diag. 0.10E+00    9.1     0.02675587      -694.3569520799 -1.78E-03
   100 Broy./Diag. 0.10E+00    9.1     0.05349861      -694.3708256509 -1.39E-02
   101 Broy./Diag. 0.10E+00    9.1     0.00159056      -694.3362458413  3.46E-02
   102 Broy./Diag. 0.10E+00    9.1     0.02232195      -694.3388750786 -2.63E-03
   103 Broy./Diag. 0.10E+00    9.1     0.03454043      -694.3321509112  6.72E-03
   104 Broy./Diag. 0.10E+00    9.1     0.02422246      -694.3418994070 -9.75E-03
   105 Broy./Diag. 0.10E+00    9.1     0.03972824      -694.3445516585 -2.65E-03
   106 Broy./Diag. 0.10E+00    9.1     0.03561875      -694.3425369540  2.01E-03
   107 Broy./Diag. 0.10E+00    9.1     0.04227106      -694.3310739793  1.15E-02
   108 Broy./Diag. 0.10E+00    9.1     0.05753407      -694.3414852289 -1.04E-02
   109 Broy./Diag. 0.10E+00    9.1     0.02286532      -694.3404267930  1.06E-03
   110 Broy./Diag. 0.10E+00    9.1     0.01028375      -694.3368173664  3.61E-03
   111 Broy./Diag. 0.10E+00    9.1     0.01622576      -694.3418833093 -5.07E-03
   112 Broy./Diag. 0.10E+00    9.1     0.01994828      -694.3600649723 -1.82E-02
   113 Broy./Diag. 0.10E+00    9.1     0.03587795      -694.3598939325  1.71E-04
   114 Broy./Diag. 0.10E+00    9.1     0.03129205      -694.3734627480 -1.36E-02
   115 Broy./Diag. 0.10E+00    9.1     0.05613482      -694.3430463114  3.04E-02
   116 Broy./Diag. 0.10E+00    9.1     0.03181599      -694.3791987110 -3.62E-02
   117 Broy./Diag. 0.10E+00    9.1     0.02792136      -694.3559599859  2.32E-02
   118 Broy./Diag. 0.10E+00    9.1     0.01117030      -694.3798592048 -2.39E-02
   119 Broy./Diag. 0.10E+00    9.1     0.09314019      -694.3802967520 -4.38E-04
   120 Broy./Diag. 0.10E+00    9.1     0.08765737      -694.3303137810  5.00E-02
   121 Broy./Diag. 0.10E+00    9.1     0.05432930      -694.3694246493 -3.91E-02
   122 Broy./Diag. 0.10E+00    9.1     0.03451700      -694.3621468910  7.28E-03
   123 Broy./Diag. 0.10E+00    9.1     0.01637232      -694.3285636947  3.36E-02
   124 Broy./Diag. 0.10E+00    9.1     0.00435160      -694.3396331632 -1.11E-02
   125 Broy./Diag. 0.10E+00    9.1     0.01701389      -694.3356745939  3.96E-03
   126 Broy./Diag. 0.10E+00    9.1     0.03393893      -694.3486135852 -1.29E-02
   127 Broy./Diag. 0.10E+00    9.1     0.02036044      -694.3510340985 -2.42E-03
   128 Broy./Diag. 0.10E+00    9.1     0.04455713      -694.3067850925  4.42E-02
   129 Broy./Diag. 0.10E+00    9.1     0.03614254      -694.3589968309 -5.22E-02
   130 Broy./Diag. 0.10E+00    9.1     0.00256643      -694.3520795765  6.92E-03
   131 Broy./Diag. 0.10E+00    9.1     0.01493455      -694.3562522085 -4.17E-03
   132 Broy./Diag. 0.10E+00    9.1     0.04259025      -694.3633553890 -7.10E-03
   133 Broy./Diag. 0.10E+00    9.1     0.02376378      -694.3625855533  7.70E-04
   134 Broy./Diag. 0.10E+00    9.1     0.00924889      -694.3646336269 -2.05E-03
   135 Broy./Diag. 0.10E+00    9.1     0.10872880      -694.3466570781  1.80E-02
   136 Broy./Diag. 0.10E+00    9.1     0.08960064      -694.3833617518 -3.67E-02
   137 Broy./Diag. 0.10E+00    9.1     0.01219128      -694.3438634035  3.95E-02
   138 Broy./Diag. 0.10E+00    9.1     0.06014805      -694.3432727077  5.91E-04
   139 Broy./Diag. 0.10E+00    9.1     0.06239297      -694.4114588267 -6.82E-02
   140 Broy./Diag. 0.10E+00    9.1     0.08946736      -694.3498007152  6.17E-02
   141 Broy./Diag. 0.10E+00    9.1     0.02506462      -694.3664631371 -1.67E-02
   142 Broy./Diag. 0.10E+00    9.1     0.01851515      -694.3415855781  2.49E-02
   143 Broy./Diag. 0.10E+00    9.1     0.01924348      -694.3440172257 -2.43E-03
   144 Broy./Diag. 0.10E+00    9.1     0.05837687      -694.3383227057  5.69E-03
   145 Broy./Diag. 0.10E+00    9.1     0.03808177      -694.3453889736 -7.07E-03
   146 Broy./Diag. 0.10E+00    9.1     0.04506723      -694.3544429455 -9.05E-03
   147 Broy./Diag. 0.10E+00    9.1     0.04517555      -694.3203157129  3.41E-02
   148 Broy./Diag. 0.10E+00    9.1     0.04783713      -694.3116973825  8.62E-03
   149 Broy./Diag. 0.10E+00    9.1     0.04392294      -694.3273262901 -1.56E-02
   150 Broy./Diag. 0.10E+00    9.1     0.05325995      -694.3339827769 -6.66E-03
   151 Broy./Diag. 0.10E+00    9.1     0.04338986      -694.3292444762  4.74E-03
   152 Broy./Diag. 0.10E+00    9.1     0.07744936      -694.3485364670 -1.93E-02
   153 Broy./Diag. 0.10E+00    9.1     0.04794834      -694.4010467960 -5.25E-02
   154 Broy./Diag. 0.10E+00    9.1     0.02807115      -694.3809291814  2.01E-02
   155 Broy./Diag. 0.10E+00    9.1     0.02002733      -694.3870703884 -6.14E-03
   156 Broy./Diag. 0.10E+00    9.1     0.01686697      -694.3879457967 -8.75E-04
   157 Broy./Diag. 0.10E+00    9.1     0.03611710      -694.3948381870 -6.89E-03
   158 Broy./Diag. 0.10E+00    9.1     0.11137194      -694.3875478280  7.29E-03
   159 Broy./Diag. 0.10E+00    9.1     0.10139660      -694.3341280052  5.34E-02
   160 Broy./Diag. 0.10E+00    9.1     0.14543021      -694.3716719667 -3.75E-02
   161 Broy./Diag. 0.10E+00    9.1     0.01038646      -694.3819594228 -1.03E-02
   162 Broy./Diag. 0.10E+00    9.1     0.02598233      -694.3745490243  7.41E-03
   163 Broy./Diag. 0.10E+00    9.1     0.05456678      -694.3715612137  2.99E-03
   164 Broy./Diag. 0.10E+00    9.1     0.03941231      -694.3730479522 -1.49E-03
   165 Broy./Diag. 0.10E+00    9.1     0.01161014      -694.3997322575 -2.67E-02
   166 Broy./Diag. 0.10E+00    9.1     0.01676095      -694.3890411039  1.07E-02
   167 Broy./Diag. 0.10E+00    9.1     0.03886818      -694.3736713419  1.54E-02
   168 Broy./Diag. 0.10E+00    9.1     0.05837892      -694.3745726809 -9.01E-04
   169 Broy./Diag. 0.10E+00    9.1     0.09280878      -694.3672972733  7.28E-03
   170 Broy./Diag. 0.10E+00    9.1     0.06815549      -694.3904138480 -2.31E-02
   171 Broy./Diag. 0.10E+00    9.1     0.00710158      -694.3522827540  3.81E-02
   172 Broy./Diag. 0.10E+00    9.1     0.01271704      -694.3563039061 -4.02E-03
   173 Broy./Diag. 0.10E+00    9.1     0.01872979      -694.3712788532 -1.50E-02
   174 Broy./Diag. 0.10E+00    9.1     0.08260898      -694.3822789574 -1.10E-02
   175 Broy./Diag. 0.10E+00    9.1     0.04620869      -694.3489418408  3.33E-02
   176 Broy./Diag. 0.10E+00    9.1     0.08181175      -694.2857412762  6.32E-02
   177 Broy./Diag. 0.10E+00    9.1     0.04536877      -694.3397994473 -5.41E-02
   178 Broy./Diag. 0.10E+00    9.1     0.01480358      -694.3350035880  4.80E-03
   179 Broy./Diag. 0.10E+00    9.1     0.03560749      -694.3593799555 -2.44E-02
   180 Broy./Diag. 0.10E+00    9.1     0.01647044      -694.3536288683  5.75E-03
   181 Broy./Diag. 0.10E+00    9.1     0.02040687      -694.3574338683 -3.80E-03
   182 Broy./Diag. 0.10E+00    9.1     0.03026790      -694.3537605001  3.67E-03
   183 Broy./Diag. 0.10E+00    9.1     0.00740636      -694.3700932185 -1.63E-02
   184 Broy./Diag. 0.10E+00    9.1     0.03763304      -694.3776820030 -7.59E-03
   185 Broy./Diag. 0.10E+00    9.1     0.04173412      -694.3772022259  4.80E-04
   186 Broy./Diag. 0.10E+00    9.1     0.06241853      -694.3504118173  2.68E-02
   187 Broy./Diag. 0.10E+00    9.1     0.06191653      -694.4050829633 -5.47E-02
   188 Broy./Diag. 0.10E+00    9.1     0.01821912      -694.3410077826  6.41E-02
   189 Broy./Diag. 0.10E+00    9.1     0.02427547      -694.3340244414  6.98E-03
   190 Broy./Diag. 0.10E+00    9.1     0.03609421      -694.3352969583 -1.27E-03
   191 Broy./Diag. 0.10E+00    9.1     0.02899901      -694.3468307739 -1.15E-02
   192 Broy./Diag. 0.10E+00    9.1     0.01791942      -694.3442268905  2.60E-03
   193 Broy./Diag. 0.10E+00    9.1     0.04165893      -694.2954523004  4.88E-02
   194 Broy./Diag. 0.10E+00    9.1     0.01613262      -694.3339868248 -3.85E-02
   195 Broy./Diag. 0.10E+00    9.1     0.01770095      -694.3300006160  3.99E-03
   196 Broy./Diag. 0.10E+00    9.1     0.06492011      -694.3401722383 -1.02E-02
   197 Broy./Diag. 0.10E+00    9.1     0.00386069      -694.3733351882 -3.32E-02
   198 Broy./Diag. 0.10E+00    9.1     0.01934544      -694.3688396362  4.50E-03
   199 Broy./Diag. 0.10E+00    9.1     0.03098131      -694.3519713739  1.69E-02
   200 Broy./Diag. 0.10E+00    9.1     0.02872170      -694.3334307016  1.85E-02
   201 Broy./Diag. 0.10E+00    9.1     0.04324691      -694.3423456105 -8.91E-03
   202 Broy./Diag. 0.10E+00    9.1     0.02942859      -694.3685355747 -2.62E-02
   203 Broy./Diag. 0.10E+00    9.1     0.03552570      -694.4093625922 -4.08E-02
   204 Broy./Diag. 0.10E+00    9.1     0.06792129      -694.3762688259  3.31E-02
   205 Broy./Diag. 0.10E+00    9.1     0.04975164      -694.3527884099  2.35E-02
   206 Broy./Diag. 0.10E+00    9.1     0.05012959      -694.3169348562  3.59E-02
   207 Broy./Diag. 0.10E+00    9.1     0.01830937      -694.3721878377 -5.53E-02
   208 Broy./Diag. 0.10E+00    9.1     0.04191350      -694.3697849420  2.40E-03
   209 Broy./Diag. 0.10E+00    9.1     0.04789469      -694.3830976957 -1.33E-02
   210 Broy./Diag. 0.10E+00    9.1     0.02982361      -694.3803106565  2.79E-03
   211 Broy./Diag. 0.10E+00    9.1     0.04325861      -694.3692884891  1.10E-02
   212 Broy./Diag. 0.10E+00    9.1     0.02854694      -694.3745580477 -5.27E-03
   213 Broy./Diag. 0.10E+00    9.1     0.03657000      -694.3705963944  3.96E-03
   214 Broy./Diag. 0.10E+00    9.1     0.06376822      -694.3513507114  1.92E-02
   215 Broy./Diag. 0.10E+00    9.1     0.03428982      -694.3672405885 -1.59E-02
   216 Broy./Diag. 0.10E+00    9.1     0.01822266      -694.3559845851  1.13E-02
   217 Broy./Diag. 0.10E+00    9.1     0.04445615      -694.3346715627  2.13E-02
   218 Broy./Diag. 0.10E+00    9.1     0.06236751      -694.3817941684 -4.71E-02
   219 Broy./Diag. 0.10E+00    9.1     0.01905087      -694.3404588122  4.13E-02
   220 Broy./Diag. 0.10E+00    9.1     0.05747248      -694.3384688090  1.99E-03
   221 Broy./Diag. 0.10E+00    9.1     0.10628530      -694.3710242016 -3.26E-02
   222 Broy./Diag. 0.10E+00    9.1     0.00462093      -694.3377241948  3.33E-02
   223 Broy./Diag. 0.10E+00    9.1     0.02702120      -694.3397108557 -1.99E-03
   224 Broy./Diag. 0.10E+00    9.1     0.06209281      -694.3209139804  1.88E-02
   225 Broy./Diag. 0.10E+00    9.1     0.01961263      -694.3461217914 -2.52E-02
   226 Broy./Diag. 0.10E+00    9.1     0.06787434      -694.3459398028  1.82E-04
   227 Broy./Diag. 0.10E+00    9.1     0.05168482      -694.3859209577 -4.00E-02
   228 Broy./Diag. 0.10E+00    9.1     0.03476154      -694.3924072795 -6.49E-03
   229 Broy./Diag. 0.10E+00    9.1     0.03303359      -694.3423266523  5.01E-02
   230 Broy./Diag. 0.10E+00    9.1     0.11910427      -694.3591114227 -1.68E-02
   231 Broy./Diag. 0.10E+00    9.1     0.07594429      -694.3295794666  2.95E-02
   232 Broy./Diag. 0.10E+00    9.1     0.01575686      -694.3491206227 -1.95E-02
   233 Broy./Diag. 0.10E+00    9.1     0.01338397      -694.3471532463  1.97E-03
   234 Broy./Diag. 0.10E+00    9.1     0.03425637      -694.3274103509  1.97E-02
   235 Broy./Diag. 0.10E+00    9.1     0.01279964      -694.3371766698 -9.77E-03
   236 Broy./Diag. 0.10E+00    9.1     0.05446354      -694.3431788754 -6.00E-03
