 DBCSR| CPU Multiplication driver                                           BLAS (U)
 DBCSR| Multrec recursion limit                                              512 (U)
 DBCSR| Multiplication stack size                                           1000 (D)
 DBCSR| Maximum elements for images                                    UNLIMITED (U)
 DBCSR| Multiplicative factor virtual images                                   1 (U)
 DBCSR| Use multiplication densification                                       T (D)
 DBCSR| Multiplication size stacks                                             3 (U)
 DBCSR| Use memory pool for CPU allocation                                     F (U)
 DBCSR| Number of 3D layers                                               SINGLE (U)
 DBCSR| Use MPI memory allocation                                              F (U)
 DBCSR| Use RMA algorithm                                                      F (U)
 DBCSR| Use Communication thread                                               T (U)
 DBCSR| Communication thread load                                             87 (D)
 DBCSR| MPI: My process id                                                     0
 DBCSR| MPI: Number of processes                                              16
 DBCSR| OMP: Current number of threads                                         1
 DBCSR| OMP: Max number of threads                                             1
 DBCSR| Split modifier for TAS multiplication algorithm                  1.0E+00 (U)


  **** **** ******  **  PROGRAM STARTED AT               2025-06-14 23:28:34.232
 ***** ** ***  *** **   PROGRAM STARTED ON                            sebnode123
 **    ****   ******    PROGRAM STARTED BY                                luehrs
 ***** **    ** ** **   PROGRAM PROCESS ID                                569117
  **** **  *******  **  PROGRAM STARTED IN /home/luehrs/PhD/Sodium_batteries/Sod
                                           ium-graphene-curvature/Sinus_surface/
                                           Sinus_7

 CP2K| version string:                                       CP2K version 2023.1
 CP2K| source code revision number:                                  git:b888bd8
 CP2K| cp2kflags: omp libint fftw3 libxc elpa parallel scalapack spglib         
 CP2K| is freely available from                            https://www.cp2k.org/
 CP2K| Program compiled at                          Tue Jan 10 19:52:03 UTC 2023
 CP2K| Program compiled on                                            x86-ubc-01
 CP2K| Program compiled for                                Linux-x86_64-gfortran
 CP2K| Data directory path                                       /usr/share/cp2k
 CP2K| Input file name                                         input.zig-zag.inp

 GLOBAL| Force Environment number                                              1
 GLOBAL| Basis set file name                                      ./BASIS_MOLOPT
 GLOBAL| Potential file name                                    ./GTH_POTENTIALS
 GLOBAL| MM Potential file name                                     MM_POTENTIAL
 GLOBAL| Coordinate file name                                  sinus_relaxed.xyz
 GLOBAL| Method name                                                        CP2K
 GLOBAL| Project name                                 graphene_sinus_Sodium_BSSE
 GLOBAL| Run type                                                           BSSE
 GLOBAL| FFT library                                                       FFTW3
 GLOBAL| Diagonalization library                                            ELPA
 GLOBAL| DGEMM library                                                      BLAS
 GLOBAL| Minimum number of eigenvectors for ELPA usage                        16
 GLOBAL| Orthonormality check for eigenvectors                          DISABLED
 GLOBAL| Matrix multiplication library                                 ScaLAPACK
 GLOBAL| All-to-all communication in single precision                          F
 GLOBAL| FFTs using library dependent lengths                                  F
 GLOBAL| Grid backend                                                       AUTO
 GLOBAL| Global print level                                                  LOW
 GLOBAL| MPI I/O enabled                                                       T
 GLOBAL| Total number of message passing processes                            16
 GLOBAL| Number of threads for this process                                    1
 GLOBAL| This output is from process                                           0
 GLOBAL| Stack size for threads created by OpenMP (OMP_STACKSIZE)        default
 GLOBAL| CPU model name                 Intel(R) Xeon(R) Gold 6144 CPU @ 3.50GHz

 MEMORY| system memory details [Kb]
 MEMORY|                        rank 0           min           max       average
 MEMORY| MemTotal             65579904      65579904      65579904      65579904
 MEMORY| MemFree              61630720      61630720      61630720      61630720
 MEMORY| Buffers                329696        329696        329696        329696
 MEMORY| Cached                1499568       1499568       1499568       1499568
 MEMORY| Slab                   348104        348104        348104        348104
 MEMORY| SReclaimable           140916        140916        140916        140916
 MEMORY| MemLikelyFree        63600900      63600900      63600900      63600900


 GENERATE|  Preliminary Number of Bonds generated:                             0
 GENERATE|  Achieved consistency in connectivity generation.

 *******************************************************************************
 *******************************************************************************
 **                                                                           **
 **     #####                         ##              ##                      **
 **    ##   ##            ##          ##              ##                      **
 **   ##     ##                       ##            ######                    **
 **   ##     ##  ##   ##  ##   #####  ##  ##   ####   ##    #####    #####    **
 **   ##     ##  ##   ##  ##  ##      ## ##   ##      ##   ##   ##  ##   ##   **
 **   ##  ## ##  ##   ##  ##  ##      ####     ###    ##   ######   ######    **
 **    ##  ###   ##   ##  ##  ##      ## ##      ##   ##   ##       ##        **
 **     #######   #####   ##   #####  ##  ##  ####    ##    #####   ##        **
 **           ##                                                    ##        **
 **                                                                           **
 **                                                ... make the atoms dance   **
 **                                                                           **
 **            Copyright (C) by CP2K developers group (2000-2022)             **
 **                      J. Chem. Phys. 152, 194103 (2020)                    **
 **                                                                           **
 *******************************************************************************


 TOTAL NUMBERS AND MAXIMUM NUMBERS

  Total number of            - Atomic kinds:                                   2
                             - Atoms:                                        193
                             - Shell sets:                                   193
                             - Shells:                                       965
                             - Primitive Cartesian functions:                967
                             - Cartesian basis functions:                   2697
                             - Spherical basis functions:                   2505

  Maximum angular momentum of- Orbital basis functions:                        2
                             - Local part of the GTH pseudopotential:          2
                             - Non-local part of the GTH pseudopotential:      1


 SCF PARAMETERS         Density guess:                                    ATOMIC
                        --------------------------------------------------------
                        max_scf:                                             300
                        max_scf_history:                                       0
                        max_diis:                                              4
                        --------------------------------------------------------
                        eps_scf:                                        3.00E-07
                        eps_scf_history:                                0.00E+00
                        eps_diis:                                       1.00E-01
                        eps_eigval:                                     1.00E-05
                        --------------------------------------------------------
                        level_shift [a.u.]:                             0.000000
                        added MOs                                       100    0
                        --------------------------------------------------------
                        Mixing method:                            BROYDEN_MIXING
                                                charge density mixing in g-space
                        --------------------------------------------------------
                        Smear method:                                FERMI_DIRAC
                        Electronic temperature [K]:                        300.0
                        Electronic temperature [a.u.]:                  9.50E-04
                        Accuracy threshold:                             1.00E-10
                        --------------------------------------------------------
                        Outer loop SCF in use 
                        No variables optimised in outer loop
                        eps_scf                                         1.00E-06
                        max_scf                                              300
                        DIIS optimization
                        DIIS buffer length                                     3
                        step_size                                       5.00E-01

 -------------------------------------------------------------------------------
 -                                                                             -
 -  BSSE CALCULATION         FRAGMENT CONF: 10        FRAGMENT SUBCONF: 10     -
 -                           CHARGE =     0           MULTIPLICITY =     0     -
 -                                                                             -
 -                 ATOM INDEX                              ATOM NAME           -
 -                 ----------                              ---------           -
 -                      1                                   C                  -
 -                      2                                   C                  -
 -                      3                                   C                  -
 -                      4                                   C                  -
 -                      5                                   C                  -
 -                      6                                   C                  -
 -                      7                                   C                  -
 -                      8                                   C                  -
 -                      9                                   C                  -
 -                     10                                   C                  -
 -                     11                                   C                  -
 -                     12                                   C                  -
 -                     13                                   C                  -
 -                     14                                   C                  -
 -                     15                                   C                  -
 -                     16                                   C                  -
 -                     17                                   C                  -
 -                     18                                   C                  -
 -                     19                                   C                  -
 -                     20                                   C                  -
 -                     21                                   C                  -
 -                     22                                   C                  -
 -                     23                                   C                  -
 -                     24                                   C                  -
 -                     25                                   C                  -
 -                     26                                   C                  -
 -                     27                                   C                  -
 -                     28                                   C                  -
 -                     29                                   C                  -
 -                     30                                   C                  -
 -                     31                                   C                  -
 -                     32                                   C                  -
 -                     33                                   C                  -
 -                     34                                   C                  -
 -                     35                                   C                  -
 -                     36                                   C                  -
 -                     37                                   C                  -
 -                     38                                   C                  -
 -                     39                                   C                  -
 -                     40                                   C                  -
 -                     41                                   C                  -
 -                     42                                   C                  -
 -                     43                                   C                  -
 -                     44                                   C                  -
 -                     45                                   C                  -
 -                     46                                   C                  -
 -                     47                                   C                  -
 -                     48                                   C                  -
 -                     49                                   C                  -
 -                     50                                   C                  -
 -                     51                                   C                  -
 -                     52                                   C                  -
 -                     53                                   C                  -
 -                     54                                   C                  -
 -                     55                                   C                  -
 -                     56                                   C                  -
 -                     57                                   C                  -
 -                     58                                   C                  -
 -                     59                                   C                  -
 -                     60                                   C                  -
 -                     61                                   C                  -
 -                     62                                   C                  -
 -                     63                                   C                  -
 -                     64                                   C                  -
 -                     65                                   C                  -
 -                     66                                   C                  -
 -                     67                                   C                  -
 -                     68                                   C                  -
 -                     69                                   C                  -
 -                     70                                   C                  -
 -                     71                                   C                  -
 -                     72                                   C                  -
 -                     73                                   C                  -
 -                     74                                   C                  -
 -                     75                                   C                  -
 -                     76                                   C                  -
 -                     77                                   C                  -
 -                     78                                   C                  -
 -                     79                                   C                  -
 -                     80                                   C                  -
 -                     81                                   C                  -
 -                     82                                   C                  -
 -                     83                                   C                  -
 -                     84                                   C                  -
 -                     85                                   C                  -
 -                     86                                   C                  -
 -                     87                                   C                  -
 -                     88                                   C                  -
 -                     89                                   C                  -
 -                     90                                   C                  -
 -                     91                                   C                  -
 -                     92                                   C                  -
 -                     93                                   C                  -
 -                     94                                   C                  -
 -                     95                                   C                  -
 -                     96                                   C                  -
 -                     97                                   C                  -
 -                     98                                   C                  -
 -                     99                                   C                  -
 -                    100                                   C                  -
 -                    101                                   C                  -
 -                    102                                   C                  -
 -                    103                                   C                  -
 -                    104                                   C                  -
 -                    105                                   C                  -
 -                    106                                   C                  -
 -                    107                                   C                  -
 -                    108                                   C                  -
 -                    109                                   C                  -
 -                    110                                   C                  -
 -                    111                                   C                  -
 -                    112                                   C                  -
 -                    113                                   C                  -
 -                    114                                   C                  -
 -                    115                                   C                  -
 -                    116                                   C                  -
 -                    117                                   C                  -
 -                    118                                   C                  -
 -                    119                                   C                  -
 -                    120                                   C                  -
 -                    121                                   C                  -
 -                    122                                   C                  -
 -                    123                                   C                  -
 -                    124                                   C                  -
 -                    125                                   C                  -
 -                    126                                   C                  -
 -                    127                                   C                  -
 -                    128                                   C                  -
 -                    129                                   C                  -
 -                    130                                   C                  -
 -                    131                                   C                  -
 -                    132                                   C                  -
 -                    133                                   C                  -
 -                    134                                   C                  -
 -                    135                                   C                  -
 -                    136                                   C                  -
 -                    137                                   C                  -
 -                    138                                   C                  -
 -                    139                                   C                  -
 -                    140                                   C                  -
 -                    141                                   C                  -
 -                    142                                   C                  -
 -                    143                                   C                  -
 -                    144                                   C                  -
 -                    145                                   C                  -
 -                    146                                   C                  -
 -                    147                                   C                  -
 -                    148                                   C                  -
 -                    149                                   C                  -
 -                    150                                   C                  -
 -                    151                                   C                  -
 -                    152                                   C                  -
 -                    153                                   C                  -
 -                    154                                   C                  -
 -                    155                                   C                  -
 -                    156                                   C                  -
 -                    157                                   C                  -
 -                    158                                   C                  -
 -                    159                                   C                  -
 -                    160                                   C                  -
 -                    161                                   C                  -
 -                    162                                   C                  -
 -                    163                                   C                  -
 -                    164                                   C                  -
 -                    165                                   C                  -
 -                    166                                   C                  -
 -                    167                                   C                  -
 -                    168                                   C                  -
 -                    169                                   C                  -
 -                    170                                   C                  -
 -                    171                                   C                  -
 -                    172                                   C                  -
 -                    173                                   C                  -
 -                    174                                   C                  -
 -                    175                                   C                  -
 -                    176                                   C                  -
 -                    177                                   C                  -
 -                    178                                   C                  -
 -                    179                                   C                  -
 -                    180                                   C                  -
 -                    181                                   C                  -
 -                    182                                   C                  -
 -                    183                                   C                  -
 -                    184                                   C                  -
 -                    185                                   C                  -
 -                    186                                   C                  -
 -                    187                                   C                  -
 -                    188                                   C                  -
 -                    189                                   C                  -
 -                    190                                   C                  -
 -                    191                                   C                  -
 -                    192                                   C                  -
 -------------------------------------------------------------------------------

 *******************************************************************************
 *******************************************************************************
 **                                                                           **
 **     #####                         ##              ##                      **
 **    ##   ##            ##          ##              ##                      **
 **   ##     ##                       ##            ######                    **
 **   ##     ##  ##   ##  ##   #####  ##  ##   ####   ##    #####    #####    **
 **   ##     ##  ##   ##  ##  ##      ## ##   ##      ##   ##   ##  ##   ##   **
 **   ##  ## ##  ##   ##  ##  ##      ####     ###    ##   ######   ######    **
 **    ##  ###   ##   ##  ##  ##      ## ##      ##   ##   ##       ##        **
 **     #######   #####   ##   #####  ##  ##  ####    ##    #####   ##        **
 **           ##                                                    ##        **
 **                                                                           **
 **                                                ... make the atoms dance   **
 **                                                                           **
 **            Copyright (C) by CP2K developers group (2000-2022)             **
 **                      J. Chem. Phys. 152, 194103 (2020)                    **
 **                                                                           **
 *******************************************************************************


 TOTAL NUMBERS AND MAXIMUM NUMBERS

  Total number of            - Atomic kinds:                                   1
                             - Atoms:                                        192
                             - Shell sets:                                   192
                             - Shells:                                       960
                             - Primitive Cartesian functions:                960
                             - Cartesian basis functions:                   2688
                             - Spherical basis functions:                   2496

  Maximum angular momentum of- Orbital basis functions:                        2
                             - Local part of the GTH pseudopotential:          2
                             - Non-local part of the GTH pseudopotential:      0


 SCF PARAMETERS         Density guess:                                    ATOMIC
                        --------------------------------------------------------
                        max_scf:                                             300
                        max_scf_history:                                       0
                        max_diis:                                              4
                        --------------------------------------------------------
                        eps_scf:                                        3.00E-07
                        eps_scf_history:                                0.00E+00
                        eps_diis:                                       1.00E-01
                        eps_eigval:                                     1.00E-05
                        --------------------------------------------------------
                        level_shift [a.u.]:                             0.000000
                        added MOs                                       100    0
                        --------------------------------------------------------
                        Mixing method:                            BROYDEN_MIXING
                                                charge density mixing in g-space
                        --------------------------------------------------------
                        Smear method:                                FERMI_DIRAC
                        Electronic temperature [K]:                        300.0
                        Electronic temperature [a.u.]:                  9.50E-04
                        Accuracy threshold:                             1.00E-10
                        --------------------------------------------------------
                        Outer loop SCF in use 
                        No variables optimised in outer loop
                        eps_scf                                         1.00E-06
                        max_scf                                              300
                        DIIS optimization
                        DIIS buffer length                                     3
                        step_size                                       5.00E-01

 Number of electrons:                                                        768
 Number of occupied orbitals:                                                384
 Number of molecular orbitals:                                               484

 Number of orbital functions:                                               2496
 Number of independent orbital functions:                                   2496

 Extrapolation method: initial_guess


 SCF WAVEFUNCTION OPTIMIZATION

  Step     Update method      Time    Convergence         Total energy    Change
  ------------------------------------------------------------------------------
     1 NoMix/Diag. 0.10E+00    3.6     0.92567805     -1085.8812431156 -1.09E+03
     2 Broy./Diag. 0.10E+00    4.8     0.00229533     -1044.4356667149  4.14E+01
     3 Broy./Diag. 0.10E+00    4.8     0.02554466     -1076.5146355430 -3.21E+01
     4 Broy./Diag. 0.10E+00    4.9     0.00034104     -1090.1739357560 -1.37E+01
     5 Broy./Diag. 0.10E+00    4.9     0.00229922     -1090.7581461390 -5.84E-01
     6 Broy./Diag. 0.10E+00    4.9     0.00009676     -1091.9328632584 -1.17E+00
     7 Broy./Diag. 0.10E+00    4.9     0.00072121     -1092.4537244983 -5.21E-01
     8 Broy./Diag. 0.10E+00    5.0     0.00004450     -1092.8177518040 -3.64E-01
     9 Broy./Diag. 0.10E+00    5.1     0.00054239     -1092.9920238231 -1.74E-01
    10 Broy./Diag. 0.10E+00    5.1     0.00004592     -1093.2125537408 -2.21E-01
    11 Broy./Diag. 0.10E+00    5.1     0.00039238     -1093.1674296529  4.51E-02
    12 Broy./Diag. 0.10E+00    5.1     0.00002838     -1093.2475181729 -8.01E-02
    13 Broy./Diag. 0.10E+00    5.1     0.00034434     -1093.2934509421 -4.59E-02
    14 Broy./Diag. 0.10E+00    5.1     0.00004728     -1093.3378442965 -4.44E-02
    15 Broy./Diag. 0.10E+00    5.1     0.00022736     -1093.3646920176 -2.68E-02
    16 Broy./Diag. 0.10E+00    5.1     0.00005627     -1093.3786660503 -1.40E-02
    17 Broy./Diag. 0.10E+00    5.1     0.00005160     -1093.3603869989  1.83E-02
    18 Broy./Diag. 0.10E+00    5.1     0.00001717     -1093.3499325071  1.05E-02
    19 Broy./Diag. 0.10E+00    5.1     0.00003736     -1093.3475868429  2.35E-03
    20 Broy./Diag. 0.10E+00    5.1     0.00000522     -1093.3516573611 -4.07E-03
    21 Broy./Diag. 0.10E+00    5.1     0.00001234     -1093.3535837780 -1.93E-03
    22 Broy./Diag. 0.10E+00    5.1     0.00000360     -1093.3549567235 -1.37E-03
    23 Broy./Diag. 0.10E+00    5.1     0.00000531     -1093.3589011286 -3.94E-03
    24 Broy./Diag. 0.10E+00    5.1     0.00001109     -1093.3597987963 -8.98E-04
    25 Broy./Diag. 0.10E+00    5.1     0.00001211     -1093.3601965013 -3.98E-04
    26 Broy./Diag. 0.10E+00    5.1     0.00000906     -1093.3626998653 -2.50E-03
    27 Broy./Diag. 0.10E+00    5.1     0.00003037     -1093.3659547169 -3.25E-03
    28 Broy./Diag. 0.10E+00    5.1     0.00000394     -1093.3698286730 -3.87E-03
    29 Broy./Diag. 0.10E+00    5.1     0.00001670     -1093.3712846650 -1.46E-03
    30 Broy./Diag. 0.10E+00    5.1     0.00000141     -1093.3720538358 -7.69E-04
    31 Broy./Diag. 0.10E+00    5.1     0.00000426     -1093.3717955611  2.58E-04
    32 Broy./Diag. 0.10E+00    5.1     0.00000130     -1093.3717131309  8.24E-05
    33 Broy./Diag. 0.10E+00    5.1     0.00000257     -1093.3717206143 -7.48E-06
    34 Broy./Diag. 0.10E+00    5.1     0.00000060     -1093.3718305118 -1.10E-04
    35 Broy./Diag. 0.10E+00    5.1     0.00000131     -1093.3717001563  1.30E-04
    36 Broy./Diag. 0.10E+00    5.2     0.00000031     -1093.3717074019 -7.25E-06
    37 Broy./Diag. 0.10E+00    5.1     0.00000128     -1093.3718406991 -1.33E-04
    38 Broy./Diag. 0.10E+00    5.1     0.00000023     -1093.3718093119  3.14E-05

  *** SCF run converged in    38 steps ***


  Electronic density on regular grids:       -768.0000000000        0.0000000000
  Core density on regular grids:              767.9999999993       -0.0000000007
  Total charge density on r-space grids:       -0.0000000006
  Total charge density g-space grids:          -0.0000000006

  Overlap energy of the core charge distribution:               0.00002992065118
  Self energy of the core charge distribution:              -2560.32152193892080
  Core Hamiltonian energy:                                    800.96875197555892
  Hartree energy:                                            1001.39953241372450
  Exchange-correlation energy:                               -335.17214806212814
  Dispersion energy:                                           -0.24645344729064
  Electronic entropic energy:                                  -0.00000017346953
  Fermi energy:                                                -0.10927162277106

  Total energy:                                             -1093.37180931187436

  outer SCF iter =    1 RMS gradient =   0.23E-06 energy =      -1093.3718093119
  outer SCF loop converged in   1 iterations or   38 steps


 *** WARNING in qs_loc_utils.F:1500 :: User requested the calculation of ***
 *** the localized wavefunction but the section LOCALIZE was not         ***
 *** specified. Localization will not be performed!                      ***


 -------------------------------------------------------------------------------
 -                                                                             -
 -  BSSE CALCULATION         FRAGMENT CONF: 01        FRAGMENT SUBCONF: 01     -
 -                           CHARGE =     0           MULTIPLICITY =     0     -
 -                                                                             -
 -                 ATOM INDEX                              ATOM NAME           -
 -                 ----------                              ---------           -
 -                    193                                   Na                 -
 -------------------------------------------------------------------------------

 *******************************************************************************
 *******************************************************************************
 **                                                                           **
 **     #####                         ##              ##                      **
 **    ##   ##            ##          ##              ##                      **
 **   ##     ##                       ##            ######                    **
 **   ##     ##  ##   ##  ##   #####  ##  ##   ####   ##    #####    #####    **
 **   ##     ##  ##   ##  ##  ##      ## ##   ##      ##   ##   ##  ##   ##   **
 **   ##  ## ##  ##   ##  ##  ##      ####     ###    ##   ######   ######    **
 **    ##  ###   ##   ##  ##  ##      ## ##      ##   ##   ##       ##        **
 **     #######   #####   ##   #####  ##  ##  ####    ##    #####   ##        **
 **           ##                                                    ##        **
 **                                                                           **
 **                                                ... make the atoms dance   **
 **                                                                           **
 **            Copyright (C) by CP2K developers group (2000-2022)             **
 **                      J. Chem. Phys. 152, 194103 (2020)                    **
 **                                                                           **
 *******************************************************************************

 *** WARNING in qs_environment.F:1486 :: More added MOs requested than     ***
 *** available. The full set of unoccupied MOs will be used. Use           ***
 *** 'ADDED_MOS -1' to always use all available MOs and to get rid of this ***
 *** warning.                                                              ***



 TOTAL NUMBERS AND MAXIMUM NUMBERS

  Total number of            - Atomic kinds:                                   1
                             - Atoms:                                          1
                             - Shell sets:                                     1
                             - Shells:                                         5
                             - Primitive Cartesian functions:                  7
                             - Cartesian basis functions:                      9
                             - Spherical basis functions:                      9

  Maximum angular momentum of- Orbital basis functions:                        1
                             - Local part of the GTH pseudopotential:          2
                             - Non-local part of the GTH pseudopotential:      1


 SCF PARAMETERS         Density guess:                                    ATOMIC
                        --------------------------------------------------------
                        max_scf:                                             300
                        max_scf_history:                                       0
                        max_diis:                                              4
                        --------------------------------------------------------
                        eps_scf:                                        3.00E-07
                        eps_scf_history:                                0.00E+00
                        eps_diis:                                       1.00E-01
                        eps_eigval:                                     1.00E-05
                        --------------------------------------------------------
                        level_shift [a.u.]:                             0.000000
                        added MOs                                         4    0
                        --------------------------------------------------------
                        Mixing method:                            BROYDEN_MIXING
                                                charge density mixing in g-space
                        --------------------------------------------------------
                        Smear method:                                FERMI_DIRAC
                        Electronic temperature [K]:                        300.0
                        Electronic temperature [a.u.]:                  9.50E-04
                        Accuracy threshold:                             1.00E-10
                        --------------------------------------------------------
                        Outer loop SCF in use 
                        No variables optimised in outer loop
                        eps_scf                                         1.00E-06
                        max_scf                                              300
                        DIIS optimization
                        DIIS buffer length                                     3
                        step_size                                       5.00E-01

 Number of electrons:                                                          9
 Number of occupied orbitals:                                                  5
 Number of molecular orbitals:                                                 9

 Number of orbital functions:                                                  9
 Number of independent orbital functions:                                      9

 Extrapolation method: initial_guess


 SCF WAVEFUNCTION OPTIMIZATION

  Step     Update method      Time    Convergence         Total energy    Change
  ------------------------------------------------------------------------------
     1 NoMix/Diag. 0.10E+00    0.7     0.02074949       -47.1653340322 -4.72E+01
     2 Broy./Diag. 0.10E+00    1.3     0.00009782       -47.1219057987  4.34E-02
     3 Broy./Diag. 0.10E+00    1.3     0.00101031       -47.1632938107 -4.14E-02
     4 Broy./Diag. 0.10E+00    1.3     0.00002407       -47.1710520675 -7.76E-03
     5 Broy./Diag. 0.10E+00    1.4     0.00026049       -47.1710280322  2.40E-05
     6 Broy./Diag. 0.10E+00    1.4     0.00000867       -47.1711502983 -1.22E-04
     7 Broy./Diag. 0.10E+00    1.5     0.00014795       -47.1693821191  1.77E-03
     8 Broy./Diag. 0.10E+00    1.5     0.00001917       -47.1683913426  9.91E-04
     9 Broy./Diag. 0.10E+00    1.5     0.00019702       -47.1677632324  6.28E-04
    10 Broy./Diag. 0.10E+00    1.6     0.00000921       -47.1673903573  3.73E-04
    11 Broy./Diag. 0.10E+00    1.6     0.00009139       -47.1672170110  1.73E-04
    12 Broy./Diag. 0.10E+00    1.6     0.00000151       -47.1671808491  3.62E-05
    13 Broy./Diag. 0.10E+00    1.6     0.00000566       -47.1673027638 -1.22E-04
    14 Broy./Diag. 0.10E+00    1.6     0.00000081       -47.1673249418 -2.22E-05
    15 Broy./Diag. 0.10E+00    1.6     0.00001108       -47.1671503934  1.75E-04
    16 Broy./Diag. 0.10E+00    1.6     0.00000228       -47.1671297648  2.06E-05
    17 Broy./Diag. 0.10E+00    1.6     0.00000235       -47.1671809786 -5.12E-05
    18 Broy./Diag. 0.10E+00    1.6     0.00000207       -47.1672253413 -4.44E-05
    19 Broy./Diag. 0.10E+00    1.6     0.00000212       -47.1672435117 -1.82E-05
    20 Broy./Diag. 0.10E+00    1.6     0.00000189       -47.1672369217  6.59E-06
    21 Broy./Diag. 0.10E+00    1.6     0.00000223       -47.1672174635  1.95E-05
    22 Broy./Diag. 0.10E+00    1.6     0.00000261       -47.1671970432  2.04E-05
    23 Broy./Diag. 0.10E+00    1.6     0.00000360       -47.1671762309  2.08E-05
    24 Broy./Diag. 0.10E+00    1.6     0.00000074       -47.1671745289  1.70E-06
    25 Broy./Diag. 0.10E+00    1.6     0.00000031       -47.1671852154 -1.07E-05
    26 Broy./Diag. 0.10E+00    1.6     0.00000025       -47.1671789902  6.23E-06

  *** SCF run converged in    26 steps ***


  Electronic density on regular grids:         -9.0003981855       -0.0003981855
  Core density on regular grids:                9.0000000000       -0.0000000000
  Total charge density on r-space grids:       -0.0003981855
  Total charge density g-space grids:          -0.0003981855

  Overlap energy of the core charge distribution:               0.00000000000000
  Self energy of the core charge distribution:                -96.60649019442629
  Core Hamiltonian energy:                                     29.76238029906932
  Hartree energy:                                              26.72264119112015
  Exchange-correlation energy:                                 -7.04438464781135
  Dispersion energy:                                           -0.00000859667287
  Electronic entropic energy:                                  -0.00131704147593
  Fermi energy:                                                -0.09138331783063

  Total energy:                                               -47.16717899019696

  outer SCF iter =    1 RMS gradient =   0.25E-06 energy =        -47.1671789902
  outer SCF loop converged in   1 iterations or   26 steps


 *** WARNING in qs_loc_utils.F:1500 :: User requested the calculation of ***
 *** the localized wavefunction but the section LOCALIZE was not         ***
 *** specified. Localization will not be performed!                      ***


 -------------------------------------------------------------------------------
 -                                                                             -
 -  BSSE CALCULATION         FRAGMENT CONF: 11        FRAGMENT SUBCONF: 10     -
 -                           CHARGE =     0           MULTIPLICITY =     0     -
 -                                                                             -
 -                 ATOM INDEX                              ATOM NAME           -
 -                 ----------                              ---------           -
 -                      1                                   C                  -
 -                      2                                   C                  -
 -                      3                                   C                  -
 -                      4                                   C                  -
 -                      5                                   C                  -
 -                      6                                   C                  -
 -                      7                                   C                  -
 -                      8                                   C                  -
 -                      9                                   C                  -
 -                     10                                   C                  -
 -                     11                                   C                  -
 -                     12                                   C                  -
 -                     13                                   C                  -
 -                     14                                   C                  -
 -                     15                                   C                  -
 -                     16                                   C                  -
 -                     17                                   C                  -
 -                     18                                   C                  -
 -                     19                                   C                  -
 -                     20                                   C                  -
 -                     21                                   C                  -
 -                     22                                   C                  -
 -                     23                                   C                  -
 -                     24                                   C                  -
 -                     25                                   C                  -
 -                     26                                   C                  -
 -                     27                                   C                  -
 -                     28                                   C                  -
 -                     29                                   C                  -
 -                     30                                   C                  -
 -                     31                                   C                  -
 -                     32                                   C                  -
 -                     33                                   C                  -
 -                     34                                   C                  -
 -                     35                                   C                  -
 -                     36                                   C                  -
 -                     37                                   C                  -
 -                     38                                   C                  -
 -                     39                                   C                  -
 -                     40                                   C                  -
 -                     41                                   C                  -
 -                     42                                   C                  -
 -                     43                                   C                  -
 -                     44                                   C                  -
 -                     45                                   C                  -
 -                     46                                   C                  -
 -                     47                                   C                  -
 -                     48                                   C                  -
 -                     49                                   C                  -
 -                     50                                   C                  -
 -                     51                                   C                  -
 -                     52                                   C                  -
 -                     53                                   C                  -
 -                     54                                   C                  -
 -                     55                                   C                  -
 -                     56                                   C                  -
 -                     57                                   C                  -
 -                     58                                   C                  -
 -                     59                                   C                  -
 -                     60                                   C                  -
 -                     61                                   C                  -
 -                     62                                   C                  -
 -                     63                                   C                  -
 -                     64                                   C                  -
 -                     65                                   C                  -
 -                     66                                   C                  -
 -                     67                                   C                  -
 -                     68                                   C                  -
 -                     69                                   C                  -
 -                     70                                   C                  -
 -                     71                                   C                  -
 -                     72                                   C                  -
 -                     73                                   C                  -
 -                     74                                   C                  -
 -                     75                                   C                  -
 -                     76                                   C                  -
 -                     77                                   C                  -
 -                     78                                   C                  -
 -                     79                                   C                  -
 -                     80                                   C                  -
 -                     81                                   C                  -
 -                     82                                   C                  -
 -                     83                                   C                  -
 -                     84                                   C                  -
 -                     85                                   C                  -
 -                     86                                   C                  -
 -                     87                                   C                  -
 -                     88                                   C                  -
 -                     89                                   C                  -
 -                     90                                   C                  -
 -                     91                                   C                  -
 -                     92                                   C                  -
 -                     93                                   C                  -
 -                     94                                   C                  -
 -                     95                                   C                  -
 -                     96                                   C                  -
 -                     97                                   C                  -
 -                     98                                   C                  -
 -                     99                                   C                  -
 -                    100                                   C                  -
 -                    101                                   C                  -
 -                    102                                   C                  -
 -                    103                                   C                  -
 -                    104                                   C                  -
 -                    105                                   C                  -
 -                    106                                   C                  -
 -                    107                                   C                  -
 -                    108                                   C                  -
 -                    109                                   C                  -
 -                    110                                   C                  -
 -                    111                                   C                  -
 -                    112                                   C                  -
 -                    113                                   C                  -
 -                    114                                   C                  -
 -                    115                                   C                  -
 -                    116                                   C                  -
 -                    117                                   C                  -
 -                    118                                   C                  -
 -                    119                                   C                  -
 -                    120                                   C                  -
 -                    121                                   C                  -
 -                    122                                   C                  -
 -                    123                                   C                  -
 -                    124                                   C                  -
 -                    125                                   C                  -
 -                    126                                   C                  -
 -                    127                                   C                  -
 -                    128                                   C                  -
 -                    129                                   C                  -
 -                    130                                   C                  -
 -                    131                                   C                  -
 -                    132                                   C                  -
 -                    133                                   C                  -
 -                    134                                   C                  -
 -                    135                                   C                  -
 -                    136                                   C                  -
 -                    137                                   C                  -
 -                    138                                   C                  -
 -                    139                                   C                  -
 -                    140                                   C                  -
 -                    141                                   C                  -
 -                    142                                   C                  -
 -                    143                                   C                  -
 -                    144                                   C                  -
 -                    145                                   C                  -
 -                    146                                   C                  -
 -                    147                                   C                  -
 -                    148                                   C                  -
 -                    149                                   C                  -
 -                    150                                   C                  -
 -                    151                                   C                  -
 -                    152                                   C                  -
 -                    153                                   C                  -
 -                    154                                   C                  -
 -                    155                                   C                  -
 -                    156                                   C                  -
 -                    157                                   C                  -
 -                    158                                   C                  -
 -                    159                                   C                  -
 -                    160                                   C                  -
 -                    161                                   C                  -
 -                    162                                   C                  -
 -                    163                                   C                  -
 -                    164                                   C                  -
 -                    165                                   C                  -
 -                    166                                   C                  -
 -                    167                                   C                  -
 -                    168                                   C                  -
 -                    169                                   C                  -
 -                    170                                   C                  -
 -                    171                                   C                  -
 -                    172                                   C                  -
 -                    173                                   C                  -
 -                    174                                   C                  -
 -                    175                                   C                  -
 -                    176                                   C                  -
 -                    177                                   C                  -
 -                    178                                   C                  -
 -                    179                                   C                  -
 -                    180                                   C                  -
 -                    181                                   C                  -
 -                    182                                   C                  -
 -                    183                                   C                  -
 -                    184                                   C                  -
 -                    185                                   C                  -
 -                    186                                   C                  -
 -                    187                                   C                  -
 -                    188                                   C                  -
 -                    189                                   C                  -
 -                    190                                   C                  -
 -                    191                                   C                  -
 -                    192                                   C                  -
 -                    193                                   Na_ghost           -
 -------------------------------------------------------------------------------

 *******************************************************************************
 *******************************************************************************
 **                                                                           **
 **     #####                         ##              ##                      **
 **    ##   ##            ##          ##              ##                      **
 **   ##     ##                       ##            ######                    **
 **   ##     ##  ##   ##  ##   #####  ##  ##   ####   ##    #####    #####    **
 **   ##     ##  ##   ##  ##  ##      ## ##   ##      ##   ##   ##  ##   ##   **
 **   ##  ## ##  ##   ##  ##  ##      ####     ###    ##   ######   ######    **
 **    ##  ###   ##   ##  ##  ##      ## ##      ##   ##   ##       ##        **
 **     #######   #####   ##   #####  ##  ##  ####    ##    #####   ##        **
 **           ##                                                    ##        **
 **                                                                           **
 **                                                ... make the atoms dance   **
 **                                                                           **
 **            Copyright (C) by CP2K developers group (2000-2022)             **
 **                      J. Chem. Phys. 152, 194103 (2020)                    **
 **                                                                           **
 *******************************************************************************


 TOTAL NUMBERS AND MAXIMUM NUMBERS

  Total number of            - Atomic kinds:                                   2
                             - Atoms:                                        193
                             - Shell sets:                                   193
                             - Shells:                                       965
                             - Primitive Cartesian functions:                967
                             - Cartesian basis functions:                   2697
                             - Spherical basis functions:                   2505

  Maximum angular momentum of- Orbital basis functions:                        2
                             - Local part of the GTH pseudopotential:          2
                             - Non-local part of the GTH pseudopotential:      0


 SCF PARAMETERS         Density guess:                                    ATOMIC
                        --------------------------------------------------------
                        max_scf:                                             300
                        max_scf_history:                                       0
                        max_diis:                                              4
                        --------------------------------------------------------
                        eps_scf:                                        3.00E-07
                        eps_scf_history:                                0.00E+00
                        eps_diis:                                       1.00E-01
                        eps_eigval:                                     1.00E-05
                        --------------------------------------------------------
                        level_shift [a.u.]:                             0.000000
                        added MOs                                       100    0
                        --------------------------------------------------------
                        Mixing method:                            BROYDEN_MIXING
                                                charge density mixing in g-space
                        --------------------------------------------------------
                        Smear method:                                FERMI_DIRAC
                        Electronic temperature [K]:                        300.0
                        Electronic temperature [a.u.]:                  9.50E-04
                        Accuracy threshold:                             1.00E-10
                        --------------------------------------------------------
                        Outer loop SCF in use 
                        No variables optimised in outer loop
                        eps_scf                                         1.00E-06
                        max_scf                                              300
                        DIIS optimization
                        DIIS buffer length                                     3
                        step_size                                       5.00E-01

 Number of electrons:                                                        768
 Number of occupied orbitals:                                                384
 Number of molecular orbitals:                                               484

 Number of orbital functions:                                               2505
 Number of independent orbital functions:                                   2505

 Extrapolation method: initial_guess


 SCF WAVEFUNCTION OPTIMIZATION

  Step     Update method      Time    Convergence         Total energy    Change
  ------------------------------------------------------------------------------
     1 NoMix/Diag. 0.10E+00    3.7     0.92592553     -1085.8812431156 -1.09E+03
     2 Broy./Diag. 0.10E+00    4.8     0.00229644     -1044.4275601222  4.15E+01
     3 Broy./Diag. 0.10E+00    4.8     0.02555702     -1076.5030252131 -3.21E+01
     4 Broy./Diag. 0.10E+00    4.9     0.00033989     -1090.1680485693 -1.37E+01
     5 Broy./Diag. 0.10E+00    4.9     0.00228909     -1090.7527900674 -5.85E-01
     6 Broy./Diag. 0.10E+00    4.9     0.00009647     -1091.9293898647 -1.18E+00
     7 Broy./Diag. 0.10E+00    5.0     0.00072318     -1092.4514501056 -5.22E-01
     8 Broy./Diag. 0.10E+00    5.0     0.00004567     -1092.8171150555 -3.66E-01
     9 Broy./Diag. 0.10E+00    5.1     0.00055434     -1092.9919193437 -1.75E-01
    10 Broy./Diag. 0.10E+00    5.1     0.00004699     -1093.2139092036 -2.22E-01
    11 Broy./Diag. 0.10E+00    5.1     0.00039284     -1093.1682566472  4.57E-02
    12 Broy./Diag. 0.10E+00    5.2     0.00002805     -1093.2486593279 -8.04E-02
    13 Broy./Diag. 0.10E+00    5.2     0.00033439     -1093.2949830367 -4.63E-02
    14 Broy./Diag. 0.10E+00    5.2     0.00004555     -1093.3394587136 -4.45E-02
    15 Broy./Diag. 0.10E+00    5.2     0.00023181     -1093.3663098944 -2.69E-02
    16 Broy./Diag. 0.10E+00    5.2     0.00005651     -1093.3801960436 -1.39E-02
    17 Broy./Diag. 0.10E+00    5.2     0.00005108     -1093.3616799920  1.85E-02
    18 Broy./Diag. 0.10E+00    5.2     0.00001654     -1093.3511673116  1.05E-02
    19 Broy./Diag. 0.10E+00    5.2     0.00003509     -1093.3484499810  2.72E-03
    20 Broy./Diag. 0.10E+00    5.2     0.00000511     -1093.3519069628 -3.46E-03
    21 Broy./Diag. 0.10E+00    5.2     0.00001354     -1093.3535838371 -1.68E-03
    22 Broy./Diag. 0.10E+00    5.2     0.00000733     -1093.3550220055 -1.44E-03
    23 Broy./Diag. 0.10E+00    5.2     0.00000998     -1093.3589369241 -3.91E-03
    24 Broy./Diag. 0.10E+00    5.2     0.00001186     -1093.3593652281 -4.28E-04
    25 Broy./Diag. 0.10E+00    5.2     0.00001051     -1093.3593072681  5.80E-05
    26 Broy./Diag. 0.10E+00    5.2     0.00001435     -1093.3616519598 -2.34E-03
    27 Broy./Diag. 0.10E+00    5.2     0.00003037     -1093.3663820186 -4.73E-03
    28 Broy./Diag. 0.10E+00    5.2     0.00000581     -1093.3711567282 -4.77E-03
    29 Broy./Diag. 0.10E+00    5.2     0.00001833     -1093.3725887178 -1.43E-03
    30 Broy./Diag. 0.10E+00    5.2     0.00000214     -1093.3733633919 -7.75E-04
    31 Broy./Diag. 0.10E+00    5.2     0.00000497     -1093.3731147258  2.49E-04
    32 Broy./Diag. 0.10E+00    5.2     0.00000158     -1093.3731111369  3.59E-06
    33 Broy./Diag. 0.10E+00    5.2     0.00000306     -1093.3731373161 -2.62E-05
    34 Broy./Diag. 0.10E+00    5.2     0.00000063     -1093.3733086976 -1.71E-04
    35 Broy./Diag. 0.10E+00    5.2     0.00000190     -1093.3732057252  1.03E-04
    36 Broy./Diag. 0.10E+00    5.2     0.00000044     -1093.3732272041 -2.15E-05
    37 Broy./Diag. 0.10E+00    5.2     0.00000179     -1093.3733723301 -1.45E-04
    38 Broy./Diag. 0.10E+00    5.2     0.00000023     -1093.3733377958  3.45E-05

  *** SCF run converged in    38 steps ***


  Electronic density on regular grids:       -767.9999999978        0.0000000022
  Core density on regular grids:              767.9999999993       -0.0000000007
  Total charge density on r-space grids:        0.0000000015
  Total charge density g-space grids:           0.0000000015

  Overlap energy of the core charge distribution:               0.00002992065118
  Self energy of the core charge distribution:              -2560.32152193892080
  Core Hamiltonian energy:                                    800.96453590011959
  Hartree energy:                                            1001.40506969995749
  Exchange-correlation energy:                               -335.17499775683746
  Dispersion energy:                                           -0.24645344729064
  Electronic entropic energy:                                  -0.00000017343233
  Fermi energy:                                                -0.10923824349968

  Total energy:                                             -1093.37333779575260

  outer SCF iter =    1 RMS gradient =   0.23E-06 energy =      -1093.3733377958
  outer SCF loop converged in   1 iterations or   38 steps


 *** WARNING in qs_loc_utils.F:1500 :: User requested the calculation of ***
 *** the localized wavefunction but the section LOCALIZE was not         ***
 *** specified. Localization will not be performed!                      ***


 -------------------------------------------------------------------------------
 -                                                                             -
 -  BSSE CALCULATION         FRAGMENT CONF: 11        FRAGMENT SUBCONF: 01     -
 -                           CHARGE =     0           MULTIPLICITY =     0     -
 -                                                                             -
 -                 ATOM INDEX                              ATOM NAME           -
 -                 ----------                              ---------           -
 -                      1                                   C_ghost            -
 -                      2                                   C_ghost            -
 -                      3                                   C_ghost            -
 -                      4                                   C_ghost            -
 -                      5                                   C_ghost            -
 -                      6                                   C_ghost            -
 -                      7                                   C_ghost            -
 -                      8                                   C_ghost            -
 -                      9                                   C_ghost            -
 -                     10                                   C_ghost            -
 -                     11                                   C_ghost            -
 -                     12                                   C_ghost            -
 -                     13                                   C_ghost            -
 -                     14                                   C_ghost            -
 -                     15                                   C_ghost            -
 -                     16                                   C_ghost            -
 -                     17                                   C_ghost            -
 -                     18                                   C_ghost            -
 -                     19                                   C_ghost            -
 -                     20                                   C_ghost            -
 -                     21                                   C_ghost            -
 -                     22                                   C_ghost            -
 -                     23                                   C_ghost            -
 -                     24                                   C_ghost            -
 -                     25                                   C_ghost            -
 -                     26                                   C_ghost            -
 -                     27                                   C_ghost            -
 -                     28                                   C_ghost            -
 -                     29                                   C_ghost            -
 -                     30                                   C_ghost            -
 -                     31                                   C_ghost            -
 -                     32                                   C_ghost            -
 -                     33                                   C_ghost            -
 -                     34                                   C_ghost            -
 -                     35                                   C_ghost            -
 -                     36                                   C_ghost            -
 -                     37                                   C_ghost            -
 -                     38                                   C_ghost            -
 -                     39                                   C_ghost            -
 -                     40                                   C_ghost            -
 -                     41                                   C_ghost            -
 -                     42                                   C_ghost            -
 -                     43                                   C_ghost            -
 -                     44                                   C_ghost            -
 -                     45                                   C_ghost            -
 -                     46                                   C_ghost            -
 -                     47                                   C_ghost            -
 -                     48                                   C_ghost            -
 -                     49                                   C_ghost            -
 -                     50                                   C_ghost            -
 -                     51                                   C_ghost            -
 -                     52                                   C_ghost            -
 -                     53                                   C_ghost            -
 -                     54                                   C_ghost            -
 -                     55                                   C_ghost            -
 -                     56                                   C_ghost            -
 -                     57                                   C_ghost            -
 -                     58                                   C_ghost            -
 -                     59                                   C_ghost            -
 -                     60                                   C_ghost            -
 -                     61                                   C_ghost            -
 -                     62                                   C_ghost            -
 -                     63                                   C_ghost            -
 -                     64                                   C_ghost            -
 -                     65                                   C_ghost            -
 -                     66                                   C_ghost            -
 -                     67                                   C_ghost            -
 -                     68                                   C_ghost            -
 -                     69                                   C_ghost            -
 -                     70                                   C_ghost            -
 -                     71                                   C_ghost            -
 -                     72                                   C_ghost            -
 -                     73                                   C_ghost            -
 -                     74                                   C_ghost            -
 -                     75                                   C_ghost            -
 -                     76                                   C_ghost            -
 -                     77                                   C_ghost            -
 -                     78                                   C_ghost            -
 -                     79                                   C_ghost            -
 -                     80                                   C_ghost            -
 -                     81                                   C_ghost            -
 -                     82                                   C_ghost            -
 -                     83                                   C_ghost            -
 -                     84                                   C_ghost            -
 -                     85                                   C_ghost            -
 -                     86                                   C_ghost            -
 -                     87                                   C_ghost            -
 -                     88                                   C_ghost            -
 -                     89                                   C_ghost            -
[...]
    43 Broy./Diag. 0.10E+00    5.2     0.00000509     -1140.5863616185 -3.60E-04
    44 Broy./Diag. 0.10E+00    5.2     0.00000097     -1140.5865302285 -1.69E-04
    45 Broy./Diag. 0.10E+00    5.2     0.00000149     -1140.5865612104 -3.10E-05
    46 Broy./Diag. 0.10E+00    5.2     0.00000164     -1140.5864898355  7.14E-05
    47 Broy./Diag. 0.10E+00    5.2     0.00000284     -1140.5863310052  1.59E-04
    48 Broy./Diag. 0.10E+00    5.2     0.00000034     -1140.5862649576  6.60E-05
    49 Broy./Diag. 0.10E+00    5.2     0.00000078     -1140.5861949427  7.00E-05
    50 Broy./Diag. 0.10E+00    5.2     0.00000008     -1140.5861784657  1.65E-05

  *** SCF run converged in    50 steps ***


  Electronic density on regular grids:       -777.0004002488       -0.0004002488
  Core density on regular grids:              776.9999999993       -0.0000000007
  Total charge density on r-space grids:       -0.0004002494
  Total charge density g-space grids:          -0.0004002494

  Overlap energy of the core charge distribution:               0.00002992065118
  Self energy of the core charge distribution:              -2656.92801213334678
  Core Hamiltonian energy:                                    831.15287325209067
  Hartree energy:                                            1027.92415733170355
  Exchange-correlation energy:                               -342.48195383332501
  Dispersion energy:                                           -0.25113443828408
  Electronic entropic energy:                                  -0.00213856524128
  Fermi energy:                                                -0.09305161656925

  Total energy:                                             -1140.58617846574020

  outer SCF iter =    1 RMS gradient =   0.83E-07 energy =      -1140.5861784657
  outer SCF loop converged in   1 iterations or   50 steps


 *** WARNING in qs_loc_utils.F:1500 :: User requested the calculation of ***
 *** the localized wavefunction but the section LOCALIZE was not         ***
 *** specified. Localization will not be performed!                      ***


 -------------------------------------------------------------------------------
 -                                                                             -
 -                                 BSSE RESULTS                                -
 -                                                                             -
 -                 CP-corrected Total energy:    -1140.583979                  -
 -                                                                             -
 -                       1-body contribution:    -1093.371809                  -
 -                       1-body contribution:      -47.167179                  -
 -                                                                             -
 -                       2-body contribution:       -0.044990                  -
 -                 BSSE-free interaction energy:       -0.044990               -
 -------------------------------------------------------------------------------

 -------------------------------------------------------------------------------
 -                                                                             -
 -                                DBCSR STATISTICS                             -
 -                                                                             -
 -------------------------------------------------------------------------------
 COUNTER                                    TOTAL       BLAS       SMM       ACC
 flops     9 x     9 x     9               103518     100.0%      0.0%      0.0%
 flops     9 x     9 x   100               615600     100.0%      0.0%      0.0%
 flops     9 x     9 x    32               699840     100.0%      0.0%      0.0%
 flops     9 x     9 x   105               850500     100.0%      0.0%      0.0%
 flops     9 x     9 x   128              5474304     100.0%      0.0%      0.0%
 flops     9 x    13 x     9              7865910     100.0%      0.0%      0.0%
 flops    13 x     9 x     9              7865910     100.0%      0.0%      0.0%
 flops     9 x    13 x   100             73803600     100.0%      0.0%      0.0%
 flops    13 x     9 x   100             73803600     100.0%      0.0%      0.0%
 flops     9 x    13 x    32             83903040     100.0%      0.0%      0.0%
 flops    13 x     9 x    32             83903040     100.0%      0.0%      0.0%
 flops     9 x    13 x   105            101965500     100.0%      0.0%      0.0%
 flops    13 x     9 x   105            101965500     100.0%      0.0%      0.0%
 flops     9 x    13 x   128            656308224     100.0%      0.0%      0.0%
 flops    13 x     9 x   128            656308224     100.0%      0.0%      0.0%
 flops    13 x    13 x     9           1572044760     100.0%      0.0%      0.0%
 flops    13 x    13 x    32          16768477440     100.0%      0.0%      0.0%
 flops    13 x    13 x   105          20378358000     100.0%      0.0%      0.0%
 flops    13 x    13 x   100          29500099200     100.0%      0.0%      0.0%
 flops    13 x    13 x   128         187806947328     100.0%      0.0%      0.0%
 flops inhomo. stacks                           0       0.0%      0.0%      0.0%
 flops total                       257.881363E+09     100.0%      0.0%      0.0%
 flops max/rank                     16.883721E+09     100.0%      0.0%      0.0%
 matmuls inhomo. stacks                         0       0.0%      0.0%      0.0%
 matmuls total                            7943926     100.0%      0.0%      0.0%
 number of processed stacks                 15226     100.0%      0.0%      0.0%
 average stack size                                   521.7       0.0       0.0
 marketing flops                   617.741550E+09
 -------------------------------------------------------------------------------
 # multiplications                            197
 max memory usage/rank             879.603712E+06
 # max total images/rank                        1
 # max 3D layers                                1
 # MPI messages exchanged                   18912
 MPI messages size (bytes):
  total size                         7.923062E+09
  min size                           0.000000E+00
  max size                         648.192000E+03
  average size                     418.943625E+03
 MPI breakdown and total messages size (bytes):
             size <=      128                2340                        0
       128 < size <=     8192                 156                   101088
      8192 < size <=    32768                   0                        0
     32768 < size <=   131072                1080                 48697200
    131072 < size <=  4194304               15336               7874267616
   4194304 < size <= 16777216                   0                        0
  16777216 < size                               0                        0
 -------------------------------------------------------------------------------
 -                                                                             -
 -                      DBCSR MESSAGE PASSING PERFORMANCE                      -
 -                                                                             -
 -------------------------------------------------------------------------------
 ROUTINE             CALLS      AVE VOLUME [Bytes]
 MP_Bcast               21                     12.
 MP_Allreduce         1443                      9.
 MP_Alltoall          5576                 472396.
 MP_ISend             3152                 169609.
 MP_IRecv             3152                 155788.
 -------------------------------------------------------------------------------

 -------------------------------------------------------------------------------
 -                                                                             -
 -                                DBM STATISTICS                               -
 -                                                                             -
 -------------------------------------------------------------------------------
    M  x    N  x    K                                          COUNT     PERCENT
 -------------------------------------------------------------------------------

 -------------------------------------------------------------------------------
 -                                                                             -
 -                                GRID STATISTICS                              -
 -                                                                             -
 -------------------------------------------------------------------------------
 LP    KERNEL             BACKEND                              COUNT     PERCENT
 4     collocate ortho    REF                               20179425      49.96%
 4     integrate ortho    REF                               19718181      48.82%
 3     collocate ortho    REF                                 235688       0.58%
 3     integrate ortho    REF                                 230489       0.57%
 0     collocate general  REF                                   9264       0.02%
 2     collocate ortho    REF                                   8313       0.02%
 2     integrate ortho    REF                                   8109       0.02%
 -------------------------------------------------------------------------------

 MEMORY| Estimated peak process memory [MiB]                                 839

 -------------------------------------------------------------------------------
 -                                                                             -
 -                         MESSAGE PASSING PERFORMANCE                         -
 -                                                                             -
 -------------------------------------------------------------------------------

 ROUTINE             CALLS      AVE VOLUME [Bytes]
 MP_Group               24
 MP_Bcast              547                1766237.
 MP_Allreduce         2844                   1700.
 MP_Sync               247
 MP_Alltoall          2661               23389816.
 MP_SendRecv          8424                 213293.
 MP_ISendRecv         5910                 161680.
 MP_Wait             14743
 MP_comm_split          26
 MP_ISend             6424                1392499.
 MP_IRecv             6424                1392475.
 MP_Recv               118                 611321.
 -------------------------------------------------------------------------------


 -------------------------------------------------------------------------------
 -                                                                             -
 -                           R E F E R E N C E S                               -
 -                                                                             -
 -------------------------------------------------------------------------------
 
 CP2K version 2023.1, the CP2K developers group (2023).
 CP2K is freely available from https://www.cp2k.org/ .

 Kuehne,Thomas D.; Iannuzzi,Marcella; Del Ben,Mauro;
 Rybkin,Vladimir V.; Seewald,Patrick; Stein,Frederick; Laino,Teodoro;
 Khaliullin,Rustam Z.; Schuett,Ole; Schiffmann,Florian; Golze,Dorothea;
 Wilhelm,Jan; Chulkov,Sergey; Bani-Hashemian,Mohammad Hossein;
 Weber,Valery; Borstnik,Urban; Taillefumier,Mathieu;
 Jakobovits,Alice Shoshana; Lazzaro,Alfio; Pabst,Hans; Mueller,Tiziano;
 Schade,Robert; Guidon,Manuel; Andermatt,Samuel; Holmberg,Nico;
 Schenter,Gregory K.; Hehn,Anna; Bussy,Augustin; Belleflamme,Fabian;
 Tabacchi,Gloria; Gloess,Andreas; Lass,Michael; Bethune,Iain;
 Mundy,Christopher J.; Plessl,Christian; Watkins,Matt;
 VandeVondele,Joost; Krack,Matthias; Hutter,Juerg. 
 The Journal of Chemical Physics, 152 (19), (2020). 
 CP2K: An electronic structure and molecular dynamics software package -
 Quickstep: Efficient and accurate electronic structure calculations.
 https://doi.org/10.1063/5.0007045

 Goerigk, Lars; Hansen, Andreas; Bauer, Christoph; Ehrlich, Stephan;
 Najibi, Asim; Grimme, Stefan. , 19 (48), (2017). 
 A look at the density functional theory zoo with the advanced GMTKN55 database
 for general main group thermochemistry, kinetics and noncovalent interactions.
 https://doi.org/10.1039/C7CP04913G

 Schuett, Ole; Messmer, Peter; Hutter, Juerg; VandeVondele, Joost. 
 Electronic Structure Calculations on Graphics Processing Units, John
 Wiley & Sons, Ltd, 173-190 (2016). 
 GPU-Accelerated Sparse Matrix-Matrix Multiplication for
 Linear Scaling Density Functional Theory.
 https://doi.org/10.1002/9781118670712.ch8

 Borstnik, U; VandeVondele, J; Weber, V; Hutter, J. 
 PARALLEL COMPUTING, 40 (5-6), 47-58 (2014). 
 Sparse matrix multiplication: The distributed block-compressed sparse
 row library.
 https://doi.org/10.1016/j.parco.2014.03.012

 Hutter, J; Iannuzzi, M; Schiffmann, F; VandeVondele, J. 
 WIREs Comput Mol Sci., 4 (1), 15-25 (2014). 
 CP2K: atomistic simulations of condensed matter systems.
 https://doi.org/10.1002/wcms.1159

 Marek, A; Blum, V; Johanni, R; Havu, V; Lang, B; Auckenthaler, T;
 Heinecke, A; Bungartz, H; Lederer, H. 
 Journal of Physics: Condensed Matter, 26 (21), (2014). 
 The ELPA library: scalable parallel eigenvalue solutions for
 electronic structure
 theory and computational science.
 https://doi.org/10.1088/0953-8984/26/21/213201

 Grimme, S; Ehrlich, S; Goerigk, L. 
 JOURNAL OF COMPUTATIONAL CHEMISTRY, 32, 1456 (2011). 
 Effect of the damping function in dispersion corrected density functional theory.
 https://doi.org/10.1002/jcc.21759

 Grimme, S; Antony, J; Ehrlich, S; Krieg, H. 
 JOURNAL OF CHEMICAL PHYSICS, 132 (15), 154104 (2010). 
 A consistent and accurate ab initio parametrization of density
 functional dispersion correction (DFT-D) for the 94 elements H-Pu.
 https://doi.org/10.1063/1.3382344

 VandeVondele, J; Hutter, J. 
 JOURNAL OF CHEMICAL PHYSICS, 127 (11), 114105 (2007). 
 Gaussian basis sets for accurate calculations on molecular systems in
 gas and condensed phases.
 https://doi.org/10.1063/1.2770708

 Krack, M. 
 THEORETICAL CHEMISTRY ACCOUNTS, 114 (1-3), 145-152 (2005). 
 Pseudopotentials for H to Kr optimized for gradient-corrected
 exchange-correlation functionals.
 https://doi.org/10.1007/s00214-005-0655-y

 VandeVondele, J; Krack, M; Mohamed, F; Parrinello, M; Chassaing, T;
 Hutter, J. COMPUTER PHYSICS COMMUNICATIONS, 167 (2), 103-128 (2005). 
 QUICKSTEP: Fast and accurate density functional calculations using a
 mixed Gaussian and plane waves approach.
 https://doi.org/10.1016/j.cpc.2004.12.014

 Frigo, M; Johnson, SG. 
 PROCEEDINGS OF THE IEEE, 93 (2), 216-231 (2005). 
 The design and implementation of FFTW3.
 https://doi.org/10.1109/JPROC.2004.840301

 Hartwigsen, C; Goedecker, S; Hutter, J. 
 PHYSICAL REVIEW B, 58 (7), 3641-3662 (1998). 
 Relativistic separable dual-space Gaussian pseudopotentials from H to Rn.
 https://doi.org/10.1103/PhysRevB.58.3641

 Lippert, G; Hutter, J; Parrinello, M. 
 MOLECULAR PHYSICS, 92 (3), 477-487 (1997). 
 A hybrid Gaussian and plane wave density functional scheme.
 https://doi.org/10.1080/002689797170220

 Perdew, JP; Burke, K; Ernzerhof, M. 
 PHYSICAL REVIEW LETTERS, 77 (18), 3865-3868 (1996). 
 Generalized gradient approximation made simple.
 https://doi.org/10.1103/PhysRevLett.77.3865

 Goedecker, S; Teter, M; Hutter, J. 
 PHYSICAL REVIEW B, 54 (3), 1703-1710 (1996). 
 Separable dual-space Gaussian pseudopotentials.
 https://doi.org/10.1103/PhysRevB.54.1703


 -------------------------------------------------------------------------------
 -                                                                             -
 -                                T I M I N G                                  -
 -                                                                             -
 -------------------------------------------------------------------------------
 SUBROUTINE                       CALLS  ASD         SELF TIME        TOTAL TIME
                                MAXIMUM       AVERAGE  MAXIMUM  AVERAGE  MAXIMUM
 CP2K                                 1  1.0    0.056    0.062  905.715  905.716
 qs_energies                          5  2.0    0.000    0.000  903.549  903.818
 scf_env_do_scf                       5  3.0    0.001    0.001  895.824  896.095
 scf_env_do_scf_inner_loop          197  4.0    0.006    0.011  895.823  896.094
 qs_scf_new_mos                     197  5.0    0.003    0.003  372.711  372.982
 eigensolver                        197  6.0    0.012    0.016  364.074  364.143
 qs_ks_update_qs_env                197  5.0    0.001    0.001  250.664  250.705
 rebuild_ks_matrix                  197  6.0    0.001    0.001  250.468  250.509
 qs_ks_build_kohn_sham_matrix       197  7.0    0.030    0.033  250.467  250.509
 cp_fm_diag_elpa                    171  7.0    0.001    0.001  220.225  220.271
 cp_fm_diag_elpa_base               171  8.0  218.786  219.201  220.159  220.159
 qs_rho_update_rho_low              202  5.0    0.001    0.001  182.240  182.283
 calculate_rho_elec                 202  6.0    0.717    0.785  182.239  182.282
 sum_up_and_integrate               197  8.0    1.939    1.966  159.428  159.471
 integrate_v_rspace                 197  9.0    0.005    0.007  157.489  157.551
 density_rs2pw                      202  7.0    0.016    0.018  117.578  154.750
 pw_transfer                       2586  8.9    0.195    0.221  145.044  146.286
 cp_fm_triangular_multiply          591  7.0  142.504  142.832  142.504  142.832
 fft_wrap_pw1pw2                   2192  9.9    0.028    0.032  141.038  142.306
 fft_wrap_pw1pw2_150                995 10.2   13.448   13.620  131.409  133.157
 grid_integrate_task_list           197 10.0   62.638  113.454   62.638  113.454
 grid_collocate_task_list           202  7.0   62.773  109.999   62.773  109.999
 fft3d_ps                          2192 11.9   57.007   57.932  103.381  105.031
 rs_pw_transfer                    1601  9.5    0.027    0.032   67.863  104.716
 gspace_mixing                      192  5.0    0.684    0.724   93.957   93.957
 mp_alltoall_d11v                  2793  9.3   52.335   91.684   52.335   91.684
 rs_gather_matrices                 197 10.0    0.143    0.169   51.296   90.646
 mp_waitany                        6424 11.5   51.870   89.873   51.870   89.873
 rs_pw_transfer_RS2PW_150           207  9.0    3.422    4.391   51.494   88.927
 broyden_mixing                     192  6.0   66.820   67.139   67.397   67.470
 qs_vxc_create                      197  8.0    0.008    0.009   50.901   51.294
 xc_vxc_pw_create                   197  9.0    2.399    2.873   50.893   51.285
 potential_pw2rs                    197 10.0    0.100    0.112   43.550   43.620
 xc_rho_set_and_dset_create         197 10.0    2.804    3.199   36.673   38.576
 x_to_yz                           1182 13.2   22.935   23.180   29.454   30.106
 xc_functional_eval                 197 11.0    0.003    0.004   23.138   24.799
 pbe_lda_eval                       197 12.0   23.135   24.796   23.135   24.796
 xc_pw_derive                      1182 11.0    0.005    0.006   14.645   18.863
 pw_nn_compose_r                   1182 12.0   10.613   11.131   14.640   18.857
 -------------------------------------------------------------------------------

 The number of warnings for this run is : 6
 
 -------------------------------------------------------------------------------
  **** **** ******  **  PROGRAM ENDED AT                 2025-06-14 23:43:40.443
 ***** ** ***  *** **   PROGRAM RAN ON                                sebnode123
 **    ****   ******    PROGRAM RAN BY                                    luehrs
 ***** **    ** ** **   PROGRAM PROCESS ID                                569117
  **** **  *******  **  PROGRAM STOPPED IN /home/luehrs/PhD/Sodium_batteries/Sod
                                           ium-graphene-curvature/Sinus_surface/
                                           Sinus_7
