 DBCSR| CPU Multiplication driver                                           BLAS (U)
 DBCSR| Multrec recursion limit                                              512 (U)
 DBCSR| Multiplication stack size                                           1000 (D)
 DBCSR| Maximum elements for images                                    UNLIMITED (U)
 DBCSR| Multiplicative factor virtual images                                   1 (U)
 DBCSR| Use multiplication densification                                       T (D)
 DBCSR| Multiplication size stacks                                             3 (U)
 DBCSR| Use memory pool for CPU allocation                                     F (U)
 DBCSR| Number of 3D layers                                               SINGLE (U)
 DBCSR| Use MPI memory allocation                                              F (U)
 DBCSR| Use RMA algorithm                                                      F (U)
 DBCSR| Use Communication thread                                               T (U)
 DBCSR| Communication thread load                                             87 (D)
 DBCSR| MPI: My process id                                                     0
 DBCSR| MPI: Number of processes                                              16
 DBCSR| OMP: Current number of threads                                         1
 DBCSR| OMP: Max number of threads                                             1
 DBCSR| Split modifier for TAS multiplication algorithm                  1.0E+00 (U)


  **** **** ******  **  PROGRAM STARTED AT               2025-06-22 15:39:07.509
 ***** ** ***  *** **   PROGRAM STARTED ON                            sebnode129
 **    ****   ******    PROGRAM STARTED BY                                luehrs
 ***** **    ** ** **   PROGRAM PROCESS ID                               1826206
  **** **  *******  **  PROGRAM STARTED IN /home/luehrs/PhD/Sodium_batteries/Sod
                                           ium-graphene-curvature/Sinus_surface2
                                           /Sinus1

 CP2K| version string:                                       CP2K version 2023.1
 CP2K| source code revision number:                                  git:b888bd8
 CP2K| cp2kflags: omp libint fftw3 libxc elpa parallel scalapack spglib         
 CP2K| is freely available from                            https://www.cp2k.org/
 CP2K| Program compiled at                          Tue Jan 10 19:52:03 UTC 2023
 CP2K| Program compiled on                                            x86-ubc-01
 CP2K| Program compiled for                                Linux-x86_64-gfortran
 CP2K| Data directory path                                       /usr/share/cp2k
 CP2K| Input file name                                        input.zig-zag1.inp

 GLOBAL| Force Environment number                                              1
 GLOBAL| Basis set file name                                      ./BASIS_MOLOPT
 GLOBAL| Potential file name                                    ./GTH_POTENTIALS
 GLOBAL| MM Potential file name                                     MM_POTENTIAL
 GLOBAL| Coordinate file name                               sinus2_1_relaxed.xyz
 GLOBAL| Method name                                                        CP2K
 GLOBAL| Project name                                graphene_sinus2_Sodium_BSSE
 GLOBAL| Run type                                                           BSSE
 GLOBAL| FFT library                                                       FFTW3
 GLOBAL| Diagonalization library                                            ELPA
 GLOBAL| DGEMM library                                                      BLAS
 GLOBAL| Minimum number of eigenvectors for ELPA usage                        16
 GLOBAL| Orthonormality check for eigenvectors                          DISABLED
 GLOBAL| Matrix multiplication library                                 ScaLAPACK
 GLOBAL| All-to-all communication in single precision                          F
 GLOBAL| FFTs using library dependent lengths                                  F
 GLOBAL| Grid backend                                                       AUTO
 GLOBAL| Global print level                                                  LOW
 GLOBAL| MPI I/O enabled                                                       T
 GLOBAL| Total number of message passing processes                            16
 GLOBAL| Number of threads for this process                                    1
 GLOBAL| This output is from process                                           0
 GLOBAL| Stack size for threads created by OpenMP (OMP_STACKSIZE)        default
 GLOBAL| CPU model name                          AMD EPYC 7513 32-Core Processor

 MEMORY| system memory details [Kb]
 MEMORY|                        rank 0           min           max       average
 MEMORY| MemTotal            131832300     131832300     131832300     131832300
 MEMORY| MemFree             122486604     122486604     122493912     122490321
 MEMORY| Buffers                310468        310468        310468        310468
 MEMORY| Cached                1138952       1138952       1139156       1139079
 MEMORY| Slab                   854604        854604        854628        854619
 MEMORY| SReclaimable           195104        195104        195104        195104
 MEMORY| MemLikelyFree       124131128     124131128     124138640     124134972


 GENERATE|  Preliminary Number of Bonds generated:                             0
 GENERATE|  Achieved consistency in connectivity generation.

 *******************************************************************************
 *******************************************************************************
 **                                                                           **
 **     #####                         ##              ##                      **
 **    ##   ##            ##          ##              ##                      **
 **   ##     ##                       ##            ######                    **
 **   ##     ##  ##   ##  ##   #####  ##  ##   ####   ##    #####    #####    **
 **   ##     ##  ##   ##  ##  ##      ## ##   ##      ##   ##   ##  ##   ##   **
 **   ##  ## ##  ##   ##  ##  ##      ####     ###    ##   ######   ######    **
 **    ##  ###   ##   ##  ##  ##      ## ##      ##   ##   ##       ##        **
 **     #######   #####   ##   #####  ##  ##  ####    ##    #####   ##        **
 **           ##                                                    ##        **
 **                                                                           **
 **                                                ... make the atoms dance   **
 **                                                                           **
 **            Copyright (C) by CP2K developers group (2000-2022)             **
 **                      J. Chem. Phys. 152, 194103 (2020)                    **
 **                                                                           **
 *******************************************************************************


 TOTAL NUMBERS AND MAXIMUM NUMBERS

  Total number of            - Atomic kinds:                                   2
                             - Atoms:                                        193
                             - Shell sets:                                   193
                             - Shells:                                       965
                             - Primitive Cartesian functions:                967
                             - Cartesian basis functions:                   2697
                             - Spherical basis functions:                   2505

  Maximum angular momentum of- Orbital basis functions:                        2
                             - Local part of the GTH pseudopotential:          2
                             - Non-local part of the GTH pseudopotential:      1


 SCF PARAMETERS         Density guess:                                    ATOMIC
                        --------------------------------------------------------
                        max_scf:                                             300
                        max_scf_history:                                       0
                        max_diis:                                              4
                        --------------------------------------------------------
                        eps_scf:                                        3.00E-07
                        eps_scf_history:                                0.00E+00
                        eps_diis:                                       1.00E-01
                        eps_eigval:                                     1.00E-05
                        --------------------------------------------------------
                        level_shift [a.u.]:                             0.000000
                        added MOs                                       100    0
                        --------------------------------------------------------
                        Mixing method:                            BROYDEN_MIXING
                                                charge density mixing in g-space
                        --------------------------------------------------------
                        Smear method:                                FERMI_DIRAC
                        Electronic temperature [K]:                        300.0
                        Electronic temperature [a.u.]:                  9.50E-04
                        Accuracy threshold:                             1.00E-10
                        --------------------------------------------------------
                        Outer loop SCF in use 
                        No variables optimised in outer loop
                        eps_scf                                         1.00E-06
                        max_scf                                              300
                        DIIS optimization
                        DIIS buffer length                                     3
                        step_size                                       5.00E-01

 -------------------------------------------------------------------------------
 -                                                                             -
 -  BSSE CALCULATION         FRAGMENT CONF: 10        FRAGMENT SUBCONF: 10     -
 -                           CHARGE =     0           MULTIPLICITY =     0     -
 -                                                                             -
 -                 ATOM INDEX                              ATOM NAME           -
 -                 ----------                              ---------           -
 -                      1                                   C                  -
 -                      2                                   C                  -
 -                      3                                   C                  -
 -                      4                                   C                  -
 -                      5                                   C                  -
 -                      6                                   C                  -
 -                      7                                   C                  -
 -                      8                                   C                  -
 -                      9                                   C                  -
 -                     10                                   C                  -
 -                     11                                   C                  -
 -                     12                                   C                  -
 -                     13                                   C                  -
 -                     14                                   C                  -
 -                     15                                   C                  -
 -                     16                                   C                  -
 -                     17                                   C                  -
 -                     18                                   C                  -
 -                     19                                   C                  -
 -                     20                                   C                  -
 -                     21                                   C                  -
 -                     22                                   C                  -
 -                     23                                   C                  -
 -                     24                                   C                  -
 -                     25                                   C                  -
 -                     26                                   C                  -
 -                     27                                   C                  -
 -                     28                                   C                  -
 -                     29                                   C                  -
 -                     30                                   C                  -
 -                     31                                   C                  -
 -                     32                                   C                  -
 -                     33                                   C                  -
 -                     34                                   C                  -
 -                     35                                   C                  -
 -                     36                                   C                  -
 -                     37                                   C                  -
 -                     38                                   C                  -
 -                     39                                   C                  -
 -                     40                                   C                  -
 -                     41                                   C                  -
 -                     42                                   C                  -
 -                     43                                   C                  -
 -                     44                                   C                  -
 -                     45                                   C                  -
 -                     46                                   C                  -
 -                     47                                   C                  -
 -                     48                                   C                  -
 -                     49                                   C                  -
 -                     50                                   C                  -
 -                     51                                   C                  -
 -                     52                                   C                  -
 -                     53                                   C                  -
 -                     54                                   C                  -
 -                     55                                   C                  -
 -                     56                                   C                  -
 -                     57                                   C                  -
 -                     58                                   C                  -
 -                     59                                   C                  -
 -                     60                                   C                  -
 -                     61                                   C                  -
 -                     62                                   C                  -
 -                     63                                   C                  -
 -                     64                                   C                  -
 -                     65                                   C                  -
 -                     66                                   C                  -
 -                     67                                   C                  -
 -                     68                                   C                  -
 -                     69                                   C                  -
 -                     70                                   C                  -
 -                     71                                   C                  -
 -                     72                                   C                  -
 -                     73                                   C                  -
 -                     74                                   C                  -
 -                     75                                   C                  -
 -                     76                                   C                  -
 -                     77                                   C                  -
 -                     78                                   C                  -
 -                     79                                   C                  -
 -                     80                                   C                  -
 -                     81                                   C                  -
 -                     82                                   C                  -
 -                     83                                   C                  -
 -                     84                                   C                  -
 -                     85                                   C                  -
 -                     86                                   C                  -
 -                     87                                   C                  -
 -                     88                                   C                  -
 -                     89                                   C                  -
 -                     90                                   C                  -
 -                     91                                   C                  -
 -                     92                                   C                  -
 -                     93                                   C                  -
 -                     94                                   C                  -
 -                     95                                   C                  -
 -                     96                                   C                  -
 -                     97                                   C                  -
 -                     98                                   C                  -
 -                     99                                   C                  -
 -                    100                                   C                  -
 -                    101                                   C                  -
 -                    102                                   C                  -
 -                    103                                   C                  -
 -                    104                                   C                  -
 -                    105                                   C                  -
 -                    106                                   C                  -
 -                    107                                   C                  -
 -                    108                                   C                  -
 -                    109                                   C                  -
 -                    110                                   C                  -
 -                    111                                   C                  -
 -                    112                                   C                  -
 -                    113                                   C                  -
 -                    114                                   C                  -
 -                    115                                   C                  -
 -                    116                                   C                  -
 -                    117                                   C                  -
 -                    118                                   C                  -
 -                    119                                   C                  -
 -                    120                                   C                  -
 -                    121                                   C                  -
 -                    122                                   C                  -
 -                    123                                   C                  -
 -                    124                                   C                  -
 -                    125                                   C                  -
 -                    126                                   C                  -
 -                    127                                   C                  -
 -                    128                                   C                  -
 -                    129                                   C                  -
 -                    130                                   C                  -
 -                    131                                   C                  -
 -                    132                                   C                  -
 -                    133                                   C                  -
 -                    134                                   C                  -
 -                    135                                   C                  -
 -                    136                                   C                  -
 -                    137                                   C                  -
 -                    138                                   C                  -
 -                    139                                   C                  -
 -                    140                                   C                  -
 -                    141                                   C                  -
 -                    142                                   C                  -
 -                    143                                   C                  -
 -                    144                                   C                  -
 -                    145                                   C                  -
 -                    146                                   C                  -
 -                    147                                   C                  -
 -                    148                                   C                  -
 -                    149                                   C                  -
 -                    150                                   C                  -
 -                    151                                   C                  -
 -                    152                                   C                  -
 -                    153                                   C                  -
 -                    154                                   C                  -
 -                    155                                   C                  -
 -                    156                                   C                  -
 -                    157                                   C                  -
 -                    158                                   C                  -
 -                    159                                   C                  -
 -                    160                                   C                  -
 -                    161                                   C                  -
 -                    162                                   C                  -
 -                    163                                   C                  -
 -                    164                                   C                  -
 -                    165                                   C                  -
 -                    166                                   C                  -
 -                    167                                   C                  -
 -                    168                                   C                  -
 -                    169                                   C                  -
 -                    170                                   C                  -
 -                    171                                   C                  -
 -                    172                                   C                  -
 -                    173                                   C                  -
 -                    174                                   C                  -
 -                    175                                   C                  -
 -                    176                                   C                  -
 -                    177                                   C                  -
 -                    178                                   C                  -
 -                    179                                   C                  -
 -                    180                                   C                  -
 -                    181                                   C                  -
 -                    182                                   C                  -
 -                    183                                   C                  -
 -                    184                                   C                  -
 -                    185                                   C                  -
 -                    186                                   C                  -
 -                    187                                   C                  -
 -                    188                                   C                  -
 -                    189                                   C                  -
 -                    190                                   C                  -
 -                    191                                   C                  -
 -                    192                                   C                  -
 -------------------------------------------------------------------------------

 *******************************************************************************
 *******************************************************************************
 **                                                                           **
 **     #####                         ##              ##                      **
 **    ##   ##            ##          ##              ##                      **
 **   ##     ##                       ##            ######                    **
 **   ##     ##  ##   ##  ##   #####  ##  ##   ####   ##    #####    #####    **
 **   ##     ##  ##   ##  ##  ##      ## ##   ##      ##   ##   ##  ##   ##   **
 **   ##  ## ##  ##   ##  ##  ##      ####     ###    ##   ######   ######    **
 **    ##  ###   ##   ##  ##  ##      ## ##      ##   ##   ##       ##        **
 **     #######   #####   ##   #####  ##  ##  ####    ##    #####   ##        **
 **           ##                                                    ##        **
 **                                                                           **
 **                                                ... make the atoms dance   **
 **                                                                           **
 **            Copyright (C) by CP2K developers group (2000-2022)             **
 **                      J. Chem. Phys. 152, 194103 (2020)                    **
 **                                                                           **
 *******************************************************************************


 TOTAL NUMBERS AND MAXIMUM NUMBERS

  Total number of            - Atomic kinds:                                   1
                             - Atoms:                                        192
                             - Shell sets:                                   192
                             - Shells:                                       960
                             - Primitive Cartesian functions:                960
                             - Cartesian basis functions:                   2688
                             - Spherical basis functions:                   2496

  Maximum angular momentum of- Orbital basis functions:                        2
                             - Local part of the GTH pseudopotential:          2
                             - Non-local part of the GTH pseudopotential:      0


 SCF PARAMETERS         Density guess:                                    ATOMIC
                        --------------------------------------------------------
                        max_scf:                                             300
                        max_scf_history:                                       0
                        max_diis:                                              4
                        --------------------------------------------------------
                        eps_scf:                                        3.00E-07
                        eps_scf_history:                                0.00E+00
                        eps_diis:                                       1.00E-01
                        eps_eigval:                                     1.00E-05
                        --------------------------------------------------------
                        level_shift [a.u.]:                             0.000000
                        added MOs                                       100    0
                        --------------------------------------------------------
                        Mixing method:                            BROYDEN_MIXING
                                                charge density mixing in g-space
                        --------------------------------------------------------
                        Smear method:                                FERMI_DIRAC
                        Electronic temperature [K]:                        300.0
                        Electronic temperature [a.u.]:                  9.50E-04
                        Accuracy threshold:                             1.00E-10
                        --------------------------------------------------------
                        Outer loop SCF in use 
                        No variables optimised in outer loop
                        eps_scf                                         1.00E-06
                        max_scf                                              300
                        DIIS optimization
                        DIIS buffer length                                     3
                        step_size                                       5.00E-01

 Number of electrons:                                                        768
 Number of occupied orbitals:                                                384
 Number of molecular orbitals:                                               484

 Number of orbital functions:                                               2496
 Number of independent orbital functions:                                   2496

 Extrapolation method: initial_guess


 SCF WAVEFUNCTION OPTIMIZATION

  Step     Update method      Time    Convergence         Total energy    Change
  ------------------------------------------------------------------------------
     1 NoMix/Diag. 0.10E+00  150.8     0.92565968     -1085.8185037910 -1.09E+03
     2 Broy./Diag. 0.10E+00  163.8     0.00227522     -1044.6253050389  4.12E+01
     3 Broy./Diag. 0.10E+00  170.9     0.02532252     -1076.6528851299 -3.20E+01
     4 Broy./Diag. 0.10E+00  164.8     0.00040124     -1090.2642109960 -1.36E+01
     5 Broy./Diag. 0.10E+00  170.8     0.00313896     -1090.8616930634 -5.97E-01
     6 Broy./Diag. 0.10E+00  145.8     0.00010457     -1092.0356314672 -1.17E+00
     7 Broy./Diag. 0.10E+00  154.8     0.00078341     -1092.5538182741 -5.18E-01
     8 Broy./Diag. 0.10E+00  156.0     0.00004951     -1092.9144870812 -3.61E-01
     9 Broy./Diag. 0.10E+00  168.2     0.00082329     -1093.0894678004 -1.75E-01
    10 Broy./Diag. 0.10E+00  153.0     0.00005601     -1093.3062826142 -2.17E-01
    11 Broy./Diag. 0.10E+00  154.6     0.00055776     -1093.2710759938  3.52E-02
    12 Broy./Diag. 0.10E+00  136.7     0.00004358     -1093.3499665061 -7.89E-02
    13 Broy./Diag. 0.10E+00  159.7     0.00051289     -1093.3902449329 -4.03E-02
    14 Broy./Diag. 0.10E+00  166.1     0.00014871     -1093.4348781078 -4.46E-02
    15 Broy./Diag. 0.10E+00  159.4     0.00027769     -1093.4641932367 -2.93E-02
    16 Broy./Diag. 0.10E+00  155.4     0.00015557     -1093.4828853025 -1.87E-02
    17 Broy./Diag. 0.10E+00  133.7     0.00005465     -1093.4739953661  8.89E-03
    18 Broy./Diag. 0.10E+00  157.8     0.00004517     -1093.4610976913  1.29E-02
    19 Broy./Diag. 0.10E+00  163.7     0.00004584     -1093.4599068406  1.19E-03
    20 Broy./Diag. 0.10E+00  177.1     0.00007682     -1093.4660007172 -6.09E-03
    21 Broy./Diag. 0.10E+00  148.1     0.00001611     -1093.4732488243 -7.25E-03
    22 Broy./Diag. 0.10E+00  167.1     0.00005903     -1093.4778348782 -4.59E-03
    23 Broy./Diag. 0.10E+00  135.9     0.00000430     -1093.4804805420 -2.65E-03
    24 Broy./Diag. 0.10E+00  163.1     0.00002047     -1093.4802674567  2.13E-04
    25 Broy./Diag. 0.10E+00  141.6     0.00000244     -1093.4802136489  5.38E-05
    26 Broy./Diag. 0.10E+00  158.2     0.00001473     -1093.4796099739  6.04E-04
    27 Broy./Diag. 0.10E+00  169.4     0.00000196     -1093.4796780307 -6.81E-05
    28 Broy./Diag. 0.10E+00  163.2     0.00000942     -1093.4794641388  2.14E-04
    29 Broy./Diag. 0.10E+00  144.5     0.00000107     -1093.4795630186 -9.89E-05
    30 Broy./Diag. 0.10E+00  175.8     0.00000510     -1093.4798564276 -2.93E-04
    31 Broy./Diag. 0.10E+00  144.0     0.00000095     -1093.4799374071 -8.10E-05
    32 Broy./Diag. 0.10E+00  139.9     0.00000476     -1093.4800411807 -1.04E-04
    33 Broy./Diag. 0.10E+00  137.0     0.00000028     -1093.4800697655 -2.86E-05

  *** SCF run converged in    33 steps ***


  Electronic density on regular grids:       -768.0000000000        0.0000000000
  Core density on regular grids:              767.9999999993       -0.0000000007
  Total charge density on r-space grids:       -0.0000000006
  Total charge density g-space grids:          -0.0000000006

  Overlap energy of the core charge distribution:               0.00002977939160
  Self energy of the core charge distribution:              -2560.32152193892080
  Core Hamiltonian energy:                                    800.73606163695104
  Hartree energy:                                            1001.47826032405465
  Exchange-correlation energy:                               -335.12927712457372
  Dispersion energy:                                           -0.24362227927446
  Electronic entropic energy:                                  -0.00000016315185
  Fermi energy:                                                -0.11879073802375

  Total energy:                                             -1093.48006976552324

  outer SCF iter =    1 RMS gradient =   0.28E-06 energy =      -1093.4800697655
  outer SCF loop converged in   1 iterations or   33 steps


 *** WARNING in qs_loc_utils.F:1500 :: User requested the calculation of ***
 *** the localized wavefunction but the section LOCALIZE was not         ***
 *** specified. Localization will not be performed!                      ***


 -------------------------------------------------------------------------------
 -                                                                             -
 -  BSSE CALCULATION         FRAGMENT CONF: 01        FRAGMENT SUBCONF: 01     -
 -                           CHARGE =     0           MULTIPLICITY =     0     -
 -                                                                             -
 -                 ATOM INDEX                              ATOM NAME           -
 -                 ----------                              ---------           -
 -                    193                                   Na                 -
 -------------------------------------------------------------------------------

 *******************************************************************************
 *******************************************************************************
 **                                                                           **
 **     #####                         ##              ##                      **
 **    ##   ##            ##          ##              ##                      **
 **   ##     ##                       ##            ######                    **
 **   ##     ##  ##   ##  ##   #####  ##  ##   ####   ##    #####    #####    **
 **   ##     ##  ##   ##  ##  ##      ## ##   ##      ##   ##   ##  ##   ##   **
 **   ##  ## ##  ##   ##  ##  ##      ####     ###    ##   ######   ######    **
 **    ##  ###   ##   ##  ##  ##      ## ##      ##   ##   ##       ##        **
 **     #######   #####   ##   #####  ##  ##  ####    ##    #####   ##        **
 **           ##                                                    ##        **
 **                                                                           **
 **                                                ... make the atoms dance   **
 **                                                                           **
 **            Copyright (C) by CP2K developers group (2000-2022)             **
 **                      J. Chem. Phys. 152, 194103 (2020)                    **
 **                                                                           **
 *******************************************************************************

 *** WARNING in qs_environment.F:1486 :: More added MOs requested than     ***
 *** available. The full set of unoccupied MOs will be used. Use           ***
 *** 'ADDED_MOS -1' to always use all available MOs and to get rid of this ***
 *** warning.                                                              ***



 TOTAL NUMBERS AND MAXIMUM NUMBERS

  Total number of            - Atomic kinds:                                   1
                             - Atoms:                                          1
                             - Shell sets:                                     1
                             - Shells:                                         5
                             - Primitive Cartesian functions:                  7
                             - Cartesian basis functions:                      9
                             - Spherical basis functions:                      9

  Maximum angular momentum of- Orbital basis functions:                        1
                             - Local part of the GTH pseudopotential:          2
                             - Non-local part of the GTH pseudopotential:      1


 SCF PARAMETERS         Density guess:                                    ATOMIC
                        --------------------------------------------------------
                        max_scf:                                             300
                        max_scf_history:                                       0
                        max_diis:                                              4
                        --------------------------------------------------------
                        eps_scf:                                        3.00E-07
                        eps_scf_history:                                0.00E+00
                        eps_diis:                                       1.00E-01
                        eps_eigval:                                     1.00E-05
                        --------------------------------------------------------
                        level_shift [a.u.]:                             0.000000
                        added MOs                                         4    0
                        --------------------------------------------------------
                        Mixing method:                            BROYDEN_MIXING
                                                charge density mixing in g-space
                        --------------------------------------------------------
                        Smear method:                                FERMI_DIRAC
                        Electronic temperature [K]:                        300.0
                        Electronic temperature [a.u.]:                  9.50E-04
                        Accuracy threshold:                             1.00E-10
                        --------------------------------------------------------
                        Outer loop SCF in use 
                        No variables optimised in outer loop
                        eps_scf                                         1.00E-06
                        max_scf                                              300
                        DIIS optimization
                        DIIS buffer length                                     3
                        step_size                                       5.00E-01

 Number of electrons:                                                          9
 Number of occupied orbitals:                                                  5
 Number of molecular orbitals:                                                 9

 Number of orbital functions:                                                  9
 Number of independent orbital functions:                                      9

 Extrapolation method: initial_guess


 SCF WAVEFUNCTION OPTIMIZATION

  Step     Update method      Time    Convergence         Total energy    Change
  ------------------------------------------------------------------------------
     1 NoMix/Diag. 0.10E+00    6.2     0.02074054       -47.1659784763 -4.72E+01
     2 Broy./Diag. 0.10E+00    7.1     0.00009816       -47.1223758766  4.36E-02
     3 Broy./Diag. 0.10E+00    7.9     0.00101261       -47.1638496280 -4.15E-02
     4 Broy./Diag. 0.10E+00    8.4     0.00002409       -47.1716296785 -7.78E-03
     5 Broy./Diag. 0.10E+00    8.2     0.00025748       -47.1716535396 -2.39E-05
     6 Broy./Diag. 0.10E+00    8.6     0.00000829       -47.1717891512 -1.36E-04
     7 Broy./Diag. 0.10E+00    8.6     0.00014411       -47.1700685119  1.72E-03
     8 Broy./Diag. 0.10E+00    8.1     0.00001855       -47.1691013638  9.67E-04
     9 Broy./Diag. 0.10E+00    9.8     0.00019316       -47.1684562084  6.45E-04
    10 Broy./Diag. 0.10E+00    8.3     0.00000937       -47.1680753721  3.81E-04
    11 Broy./Diag. 0.10E+00    8.5     0.00009220       -47.1678882833  1.87E-04
    12 Broy./Diag. 0.10E+00   10.1     0.00000208       -47.1678410631  4.72E-05
    13 Broy./Diag. 0.10E+00    9.7     0.00000541       -47.1679538607 -1.13E-04
    14 Broy./Diag. 0.10E+00    9.0     0.00000079       -47.1679743258 -2.05E-05
    15 Broy./Diag. 0.10E+00    8.9     0.00001133       -47.1678062277  1.68E-04
    16 Broy./Diag. 0.10E+00    8.7     0.00000232       -47.1677831976  2.30E-05
    17 Broy./Diag. 0.10E+00    8.4     0.00000229       -47.1678282351 -4.50E-05
    18 Broy./Diag. 0.10E+00    8.1     0.00000198       -47.1678720413 -4.38E-05
    19 Broy./Diag. 0.10E+00    8.7     0.00000184       -47.1678905873 -1.85E-05
    20 Broy./Diag. 0.10E+00    7.6     0.00000197       -47.1678853777  5.21E-06
    21 Broy./Diag. 0.10E+00    7.8     0.00000276       -47.1678645284  2.08E-05
    22 Broy./Diag. 0.10E+00    8.2     0.00000351       -47.1678393005  2.52E-05
    23 Broy./Diag. 0.10E+00    8.2     0.00000339       -47.1678197229  1.96E-05
    24 Broy./Diag. 0.10E+00    5.1     0.00000085       -47.1678187509  9.72E-07
    25 Broy./Diag. 0.10E+00    8.6     0.00000038       -47.1678282555 -9.50E-06
    26 Broy./Diag. 0.10E+00    8.5     0.00000036       -47.1678229703  5.29E-06
    27 Broy./Diag. 0.10E+00    8.7     0.00000074       -47.1678107150  1.23E-05
    28 Broy./Diag. 0.10E+00    8.2     0.00000075       -47.1678063309  4.38E-06
    29 Broy./Diag. 0.10E+00    9.0     0.00000059       -47.1678066093 -2.78E-07
    30 Broy./Diag. 0.10E+00    9.1     0.00000027       -47.1678095498 -2.94E-06

  *** SCF run converged in    30 steps ***


  Electronic density on regular grids:         -9.0004222142       -0.0004222142
  Core density on regular grids:                9.0000000000       -0.0000000000
  Total charge density on r-space grids:       -0.0004222142
  Total charge density g-space grids:          -0.0004222142

  Overlap energy of the core charge distribution:               0.00000000000000
  Self energy of the core charge distribution:                -96.60649019442629
  Core Hamiltonian energy:                                     29.76253769207353
  Hartree energy:                                              26.72186063936588
  Exchange-correlation energy:                                 -7.04439204865713
  Dispersion energy:                                           -0.00000859667287
  Electronic entropic energy:                                  -0.00131704147593
  Fermi energy:                                                -0.09146923483844

  Total energy:                                               -47.16780954979278

  outer SCF iter =    1 RMS gradient =   0.27E-06 energy =        -47.1678095498
  outer SCF loop converged in   1 iterations or   30 steps


 *** WARNING in qs_loc_utils.F:1500 :: User requested the calculation of ***
 *** the localized wavefunction but the section LOCALIZE was not         ***
 *** specified. Localization will not be performed!                      ***


 -------------------------------------------------------------------------------
 -                                                                             -
 -  BSSE CALCULATION         FRAGMENT CONF: 11        FRAGMENT SUBCONF: 10     -
 -                           CHARGE =     0           MULTIPLICITY =     0     -
 -                                                                             -
 -                 ATOM INDEX                              ATOM NAME           -
 -                 ----------                              ---------           -
 -                      1                                   C                  -
 -                      2                                   C                  -
 -                      3                                   C                  -
 -                      4                                   C                  -
 -                      5                                   C                  -
 -                      6                                   C                  -
 -                      7                                   C                  -
 -                      8                                   C                  -
 -                      9                                   C                  -
 -                     10                                   C                  -
 -                     11                                   C                  -
 -                     12                                   C                  -
 -                     13                                   C                  -
 -                     14                                   C                  -
 -                     15                                   C                  -
 -                     16                                   C                  -
 -                     17                                   C                  -
 -                     18                                   C                  -
 -                     19                                   C                  -
 -                     20                                   C                  -
 -                     21                                   C                  -
 -                     22                                   C                  -
 -                     23                                   C                  -
 -                     24                                   C                  -
 -                     25                                   C                  -
 -                     26                                   C                  -
 -                     27                                   C                  -
 -                     28                                   C                  -
 -                     29                                   C                  -
 -                     30                                   C                  -
 -                     31                                   C                  -
 -                     32                                   C                  -
 -                     33                                   C                  -
 -                     34                                   C                  -
 -                     35                                   C                  -
 -                     36                                   C                  -
 -                     37                                   C                  -
 -                     38                                   C                  -
 -                     39                                   C                  -
 -                     40                                   C                  -
 -                     41                                   C                  -
 -                     42                                   C                  -
 -                     43                                   C                  -
 -                     44                                   C                  -
 -                     45                                   C                  -
 -                     46                                   C                  -
 -                     47                                   C                  -
 -                     48                                   C                  -
 -                     49                                   C                  -
 -                     50                                   C                  -
 -                     51                                   C                  -
 -                     52                                   C                  -
 -                     53                                   C                  -
 -                     54                                   C                  -
 -                     55                                   C                  -
 -                     56                                   C                  -
 -                     57                                   C                  -
 -                     58                                   C                  -
 -                     59                                   C                  -
 -                     60                                   C                  -
 -                     61                                   C                  -
 -                     62                                   C                  -
 -                     63                                   C                  -
 -                     64                                   C                  -
 -                     65                                   C                  -
 -                     66                                   C                  -
 -                     67                                   C                  -
 -                     68                                   C                  -
 -                     69                                   C                  -
 -                     70                                   C                  -
 -                     71                                   C                  -
 -                     72                                   C                  -
 -                     73                                   C                  -
 -                     74                                   C                  -
 -                     75                                   C                  -
 -                     76                                   C                  -
 -                     77                                   C                  -
 -                     78                                   C                  -
 -                     79                                   C                  -
 -                     80                                   C                  -
 -                     81                                   C                  -
 -                     82                                   C                  -
 -                     83                                   C                  -
 -                     84                                   C                  -
 -                     85                                   C                  -
 -                     86                                   C                  -
 -                     87                                   C                  -
 -                     88                                   C                  -
 -                     89                                   C                  -
 -                     90                                   C                  -
 -                     91                                   C                  -
 -                     92                                   C                  -
 -                     93                                   C                  -
 -                     94                                   C                  -
 -                     95                                   C                  -
 -                     96                                   C                  -
 -                     97                                   C                  -
 -                     98                                   C                  -
 -                     99                                   C                  -
 -                    100                                   C                  -
 -                    101                                   C                  -
 -                    102                                   C                  -
 -                    103                                   C                  -
 -                    104                                   C                  -
 -                    105                                   C                  -
 -                    106                                   C                  -
 -                    107                                   C                  -
 -                    108                                   C                  -
 -                    109                                   C                  -
 -                    110                                   C                  -
 -                    111                                   C                  -
 -                    112                                   C                  -
 -                    113                                   C                  -
 -                    114                                   C                  -
 -                    115                                   C                  -
 -                    116                                   C                  -
 -                    117                                   C                  -
 -                    118                                   C                  -
 -                    119                                   C                  -
 -                    120                                   C                  -
 -                    121                                   C                  -
 -                    122                                   C                  -
 -                    123                                   C                  -
 -                    124                                   C                  -
 -                    125                                   C                  -
 -                    126                                   C                  -
 -                    127                                   C                  -
 -                    128                                   C                  -
 -                    129                                   C                  -
 -                    130                                   C                  -
 -                    131                                   C                  -
 -                    132                                   C                  -
 -                    133                                   C                  -
 -                    134                                   C                  -
 -                    135                                   C                  -
 -                    136                                   C                  -
 -                    137                                   C                  -
 -                    138                                   C                  -
 -                    139                                   C                  -
 -                    140                                   C                  -
 -                    141                                   C                  -
 -                    142                                   C                  -
 -                    143                                   C                  -
 -                    144                                   C                  -
 -                    145                                   C                  -
 -                    146                                   C                  -
 -                    147                                   C                  -
 -                    148                                   C                  -
 -                    149                                   C                  -
 -                    150                                   C                  -
 -                    151                                   C                  -
 -                    152                                   C                  -
 -                    153                                   C                  -
 -                    154                                   C                  -
 -                    155                                   C                  -
 -                    156                                   C                  -
 -                    157                                   C                  -
 -                    158                                   C                  -
 -                    159                                   C                  -
 -                    160                                   C                  -
 -                    161                                   C                  -
 -                    162                                   C                  -
 -                    163                                   C                  -
 -                    164                                   C                  -
 -                    165                                   C                  -
 -                    166                                   C                  -
 -                    167                                   C                  -
 -                    168                                   C                  -
 -                    169                                   C                  -
 -                    170                                   C                  -
 -                    171                                   C                  -
 -                    172                                   C                  -
 -                    173                                   C                  -
 -                    174                                   C                  -
 -                    175                                   C                  -
 -                    176                                   C                  -
 -                    177                                   C                  -
 -                    178                                   C                  -
 -                    179                                   C                  -
 -                    180                                   C                  -
 -                    181                                   C                  -
 -                    182                                   C                  -
 -                    183                                   C                  -
 -                    184                                   C                  -
 -                    185                                   C                  -
 -                    186                                   C                  -
 -                    187                                   C                  -
 -                    188                                   C                  -
 -                    189                                   C                  -
 -                    190                                   C                  -
 -                    191                                   C                  -
 -                    192                                   C                  -
 -                    193                                   Na_ghost           -
 -------------------------------------------------------------------------------

 *******************************************************************************
 *******************************************************************************
 **                                                                           **
 **     #####                         ##              ##                      **
 **    ##   ##            ##          ##              ##                      **
 **   ##     ##                       ##            ######                    **
 **   ##     ##  ##   ##  ##   #####  ##  ##   ####   ##    #####    #####    **
 **   ##     ##  ##   ##  ##  ##      ## ##   ##      ##   ##   ##  ##   ##   **
 **   ##  ## ##  ##   ##  ##  ##      ####     ###    ##   ######   ######    **
 **    ##  ###   ##   ##  ##  ##      ## ##      ##   ##   ##       ##        **
 **     #######   #####   ##   #####  ##  ##  ####    ##    #####   ##        **
 **           ##                                                    ##        **
 **                                                                           **
 **                                                ... make the atoms dance   **
 **                                                                           **
 **            Copyright (C) by CP2K developers group (2000-2022)             **
 **                      J. Chem. Phys. 152, 194103 (2020)                    **
 **                                                                           **
 *******************************************************************************


 TOTAL NUMBERS AND MAXIMUM NUMBERS

  Total number of            - Atomic kinds:                                   2
                             - Atoms:                                        193
                             - Shell sets:                                   193
                             - Shells:                                       965
                             - Primitive Cartesian functions:                967
                             - Cartesian basis functions:                   2697
                             - Spherical basis functions:                   2505

  Maximum angular momentum of- Orbital basis functions:                        2
                             - Local part of the GTH pseudopotential:          2
                             - Non-local part of the GTH pseudopotential:      0


 SCF PARAMETERS         Density guess:                                    ATOMIC
                        --------------------------------------------------------
                        max_scf:                                             300
                        max_scf_history:                                       0
                        max_diis:                                              4
                        --------------------------------------------------------
                        eps_scf:                                        3.00E-07
                        eps_scf_history:                                0.00E+00
                        eps_diis:                                       1.00E-01
                        eps_eigval:                                     1.00E-05
                        --------------------------------------------------------
                        level_shift [a.u.]:                             0.000000
                        added MOs                                       100    0
                        --------------------------------------------------------
                        Mixing method:                            BROYDEN_MIXING
                                                charge density mixing in g-space
                        --------------------------------------------------------
                        Smear method:                                FERMI_DIRAC
                        Electronic temperature [K]:                        300.0
                        Electronic temperature [a.u.]:                  9.50E-04
                        Accuracy threshold:                             1.00E-10
                        --------------------------------------------------------
                        Outer loop SCF in use 
                        No variables optimised in outer loop
                        eps_scf                                         1.00E-06
                        max_scf                                              300
                        DIIS optimization
                        DIIS buffer length                                     3
                        step_size                                       5.00E-01

 Number of electrons:                                                        768
 Number of occupied orbitals:                                                384
 Number of molecular orbitals:                                               484

 Number of orbital functions:                                               2505
 Number of independent orbital functions:                                   2505

 Extrapolation method: initial_guess


 SCF WAVEFUNCTION OPTIMIZATION

  Step     Update method      Time    Convergence         Total energy    Change
  ------------------------------------------------------------------------------
     1 NoMix/Diag. 0.10E+00  128.0     0.92592542     -1085.8185037910 -1.09E+03
     2 Broy./Diag. 0.10E+00  127.5     0.00227527     -1044.6224448380  4.12E+01
     3 Broy./Diag. 0.10E+00  159.7     0.02532297     -1076.6474158983 -3.20E+01
     4 Broy./Diag. 0.10E+00  149.0     0.00040112     -1090.2635703395 -1.36E+01
     5 Broy./Diag. 0.10E+00  166.9     0.00307085     -1090.8605835093 -5.97E-01
     6 Broy./Diag. 0.10E+00  152.8     0.00010457     -1092.0357115323 -1.18E+00
     7 Broy./Diag. 0.10E+00  164.4     0.00078464     -1092.5540074947 -5.18E-01
     8 Broy./Diag. 0.10E+00  155.9     0.00004867     -1092.9152937145 -3.61E-01
     9 Broy./Diag. 0.10E+00  154.6     0.00079528     -1093.0902252066 -1.75E-01
    10 Broy./Diag. 0.10E+00  166.3     0.00005590     -1093.3074553356 -2.17E-01
    11 Broy./Diag. 0.10E+00  174.8     0.00056573     -1093.2719795909  3.55E-02
    12 Broy./Diag. 0.10E+00  172.4     0.00004389     -1093.3508801910 -7.89E-02
    13 Broy./Diag. 0.10E+00  172.0     0.00049453     -1093.3915084499 -4.06E-02
    14 Broy./Diag. 0.10E+00  155.6     0.00014239     -1093.4364050892 -4.49E-02
    15 Broy./Diag. 0.10E+00  155.8     0.00028518     -1093.4654519698 -2.90E-02
    16 Broy./Diag. 0.10E+00  126.0     0.00016516     -1093.4839583469 -1.85E-02
    17 Broy./Diag. 0.10E+00  151.1     0.00005118     -1093.4749808231  8.98E-03
    18 Broy./Diag. 0.10E+00  150.9     0.00004595     -1093.4618045836  1.32E-02
    19 Broy./Diag. 0.10E+00  159.8     0.00004533     -1093.4607752306  1.03E-03
    20 Broy./Diag. 0.10E+00  168.0     0.00007842     -1093.4675794671 -6.80E-03
    21 Broy./Diag. 0.10E+00  155.5     0.00001571     -1093.4751357311 -7.56E-03
    22 Broy./Diag. 0.10E+00  175.2     0.00006088     -1093.4790765970 -3.94E-03
    23 Broy./Diag. 0.10E+00  162.4     0.00000449     -1093.4813281524 -2.25E-03
    24 Broy./Diag. 0.10E+00  178.9     0.00002022     -1093.4809339071  3.94E-04
    25 Broy./Diag. 0.10E+00  134.1     0.00000270     -1093.4807683865  1.66E-04
    26 Broy./Diag. 0.10E+00  149.4     0.00001714     -1093.4803420604  4.26E-04
    27 Broy./Diag. 0.10E+00  170.8     0.00000188     -1093.4804343212 -9.23E-05
    28 Broy./Diag. 0.10E+00  158.9     0.00000843     -1093.4802695325  1.65E-04
    29 Broy./Diag. 0.10E+00  153.8     0.00000094     -1093.4804434976 -1.74E-04
    30 Broy./Diag. 0.10E+00  138.6     0.00000455     -1093.4807220652 -2.79E-04
    31 Broy./Diag. 0.10E+00  172.4     0.00000105     -1093.4808537806 -1.32E-04
    32 Broy./Diag. 0.10E+00  152.7     0.00000486     -1093.4809705988 -1.17E-04
    33 Broy./Diag. 0.10E+00  147.7     0.00000027     -1093.4810180494 -4.75E-05

  *** SCF run converged in    33 steps ***


  Electronic density on regular grids:       -767.9999999987        0.0000000013
  Core density on regular grids:              767.9999999993       -0.0000000007
  Total charge density on r-space grids:        0.0000000006
  Total charge density g-space grids:           0.0000000006

  Overlap energy of the core charge distribution:               0.00002977939160
  Self energy of the core charge distribution:              -2560.32152193892080
  Core Hamiltonian energy:                                    800.73094642344427
  Hartree energy:                                            1001.48265895437851
  Exchange-correlation energy:                               -335.12950882519675
  Dispersion energy:                                           -0.24362227927446
  Electronic entropic energy:                                  -0.00000016317856
  Fermi energy:                                                -0.11876779630529

  Total energy:                                             -1093.48101804935573

  outer SCF iter =    1 RMS gradient =   0.27E-06 energy =      -1093.4810180494
  outer SCF loop converged in   1 iterations or   33 steps


 *** WARNING in qs_loc_utils.F:1500 :: User requested the calculation of ***
 *** the localized wavefunction but the section LOCALIZE was not         ***
 *** specified. Localization will not be performed!                      ***


 -------------------------------------------------------------------------------
 -                                                                             -
 -  BSSE CALCULATION         FRAGMENT CONF: 11        FRAGMENT SUBCONF: 01     -
 -                           CHARGE =     0           MULTIPLICITY =     0     -
 -                                                                             -
 -                 ATOM INDEX                              ATOM NAME           -
 -                 ----------                              ---------           -
 -                      1                                   C_ghost            -
 -                      2                                   C_ghost            -
 -                      3                                   C_ghost            -
 -                      4                                   C_ghost            -
 -                      5                                   C_ghost            -
 -                      6                                   C_ghost            -
 -                      7                                   C_ghost            -
 -                      8                                   C_ghost            -
 -                      9                                   C_ghost            -
 -                     10                                   C_ghost            -
 -                     11                                   C_ghost            -
 -                     12                                   C_ghost            -
 -                     13                                   C_ghost            -
 -                     14                                   C_ghost            -
 -                     15                                   C_ghost            -
 -                     16                                   C_ghost            -
 -                     17                                   C_ghost            -
 -                     18                                   C_ghost            -
 -                     19                                   C_ghost            -
 -                     20                                   C_ghost            -
 -                     21                                   C_ghost            -
 -                     22                                   C_ghost            -
 -                     23                                   C_ghost            -
 -                     24                                   C_ghost            -
 -                     25                                   C_ghost            -
 -                     26                                   C_ghost            -
 -                     27                                   C_ghost            -
 -                     28                                   C_ghost            -
 -                     29                                   C_ghost            -
 -                     30                                   C_ghost            -
 -                     31                                   C_ghost            -
 -                     32                                   C_ghost            -
 -                     33                                   C_ghost            -
 -                     34                                   C_ghost            -
 -                     35                                   C_ghost            -
 -                     36                                   C_ghost            -
 -                     37                                   C_ghost            -
 -                     38                                   C_ghost            -
 -                     39                                   C_ghost            -
 -                     40                                   C_ghost            -
 -                     41                                   C_ghost            -
 -                     42                                   C_ghost            -
 -                     43                                   C_ghost            -
 -                     44                                   C_ghost            -
 -                     45                                   C_ghost            -
 -                     46                                   C_ghost            -
 -                     47                                   C_ghost            -
 -                     48                                   C_ghost            -
 -                     49                                   C_ghost            -
 -                     50                                   C_ghost            -
 -                     51                                   C_ghost            -
 -                     52                                   C_ghost            -
 -                     53                                   C_ghost            -
 -                     54                                   C_ghost            -
 -                     55                                   C_ghost            -
 -                     56                                   C_ghost            -
 -                     57                                   C_ghost            -
 -                     58                                   C_ghost            -
 -                     59                                   C_ghost            -
 -                     60                                   C_ghost            -
 -                     61                                   C_ghost            -
 -                     62                                   C_ghost            -
 -                     63                                   C_ghost            -
 -                     64                                   C_ghost            -
 -                     65                                   C_ghost            -
 -                     66                                   C_ghost            -
 -                     67                                   C_ghost            -
 -                     68                                   C_ghost            -
 -                     69                                   C_ghost            -
 -                     70                                   C_ghost            -
 -                     71                                   C_ghost            -
 -                     72                                   C_ghost            -
 -                     73                                   C_ghost            -
 -                     74                                   C_ghost            -
 -                     75                                   C_ghost            -
 -                     76                                   C_ghost            -
 -                     77                                   C_ghost            -
 -                     78                                   C_ghost            -
 -                     79                                   C_ghost            -
 -                     80                                   C_ghost            -
 -                     81                                   C_ghost            -
 -                     82                                   C_ghost            -
 -                     83                                   C_ghost            -
 -                     84                                   C_ghost            -
 -                     85                                   C_ghost            -
 -                     86                                   C_ghost            -
 -                     87                                   C_ghost            -
 -                     88                                   C_ghost            -
 -                     89                                   C_ghost            -
 -                     90                                   C_ghost            -
 -                     91                                   C_ghost            -
 -                     92                                   C_ghost            -
 -                     93                                   C_ghost            -
 -                     94                                   C_ghost            -
 -                     95                                   C_ghost            -
[...]
    20 Broy./Diag. 0.10E+00  168.4     0.00053761     -1140.6606650967 -9.60E-03
    21 Broy./Diag. 0.10E+00  164.5     0.00014120     -1140.6847401224 -2.41E-02
    22 Broy./Diag. 0.10E+00  153.2     0.00011047     -1140.6827781784  1.96E-03
    23 Broy./Diag. 0.10E+00  160.5     0.00005445     -1140.6769621081  5.82E-03
    24 Broy./Diag. 0.10E+00  150.8     0.00008477     -1140.6796404937 -2.68E-03
    25 Broy./Diag. 0.10E+00  160.4     0.00002421     -1140.6827105160 -3.07E-03
    26 Broy./Diag. 0.10E+00  159.1     0.00014047     -1140.6888897085 -6.18E-03
    27 Broy./Diag. 0.10E+00  173.3     0.00002624     -1140.6906183120 -1.73E-03
    28 Broy./Diag. 0.10E+00  151.1     0.00005693     -1140.6886899174  1.93E-03
    29 Broy./Diag. 0.10E+00  168.8     0.00030682     -1140.6874290211  1.26E-03
    30 Broy./Diag. 0.10E+00  160.2     0.00012628     -1140.6884793570 -1.05E-03
    31 Broy./Diag. 0.10E+00  170.9     0.00004992     -1140.6886157149 -1.36E-04
    32 Broy./Diag. 0.10E+00  159.0     0.00004246     -1140.6878704368  7.45E-04
    33 Broy./Diag. 0.10E+00  177.4     0.00001475     -1140.6872952693  5.75E-04
    34 Broy./Diag. 0.10E+00  152.0     0.00001353     -1140.6873052769 -1.00E-05
    35 Broy./Diag. 0.10E+00  192.3     0.00000705     -1140.6877911655 -4.86E-04
    36 Broy./Diag. 0.10E+00  159.6     0.00000503     -1140.6884100478 -6.19E-04
    37 Broy./Diag. 0.10E+00  164.7     0.00000317     -1140.6887967804 -3.87E-04
    38 Broy./Diag. 0.10E+00  164.1     0.00000531     -1140.6888611921 -6.44E-05
    39 Broy./Diag. 0.10E+00  175.8     0.00000625     -1140.6887418119  1.19E-04
    40 Broy./Diag. 0.10E+00  183.5     0.00000431     -1140.6887201249  2.17E-05
    41 Broy./Diag. 0.10E+00  156.2     0.00000530     -1140.6887542320 -3.41E-05
    42 Broy./Diag. 0.10E+00  155.4     0.00000105     -1140.6887562217 -1.99E-06
    43 Broy./Diag. 0.10E+00  157.8     0.00000434     -1140.6887800644 -2.38E-05
    44 Broy./Diag. 0.10E+00  182.9     0.00000076     -1140.6888502902 -7.02E-05
    45 Broy./Diag. 0.10E+00  175.0     0.00000118     -1140.6888215283  2.88E-05
    46 Broy./Diag. 0.10E+00  136.3     0.00000090     -1140.6887941905  2.73E-05
    47 Broy./Diag. 0.10E+00  174.7     0.00000031     -1140.6887753874  1.88E-05
    48 Broy./Diag. 0.10E+00  192.0     0.00000052     -1140.6887457257  2.97E-05
    49 Broy./Diag. 0.10E+00  171.6     0.00000054     -1140.6887386728  7.05E-06
    50 Broy./Diag. 0.10E+00  157.3     0.00000011     -1140.6887582578 -1.96E-05

  *** SCF run converged in    50 steps ***


  Electronic density on regular grids:       -777.0004244280       -0.0004244280
  Core density on regular grids:              776.9999999993       -0.0000000007
  Total charge density on r-space grids:       -0.0004244287
  Total charge density g-space grids:          -0.0004244287

  Overlap energy of the core charge distribution:               0.00002977939160
  Self energy of the core charge distribution:              -2656.92801213334678
  Core Hamiltonian energy:                                    830.90171008780919
  Hartree energy:                                            1028.00990772657588
  Exchange-correlation energy:                               -342.42350047128133
  Dispersion energy:                                           -0.24675587406037
  Electronic entropic energy:                                  -0.00213737286895
  Fermi energy:                                                -0.09708189621619

  Total energy:                                             -1140.68875825777536

  outer SCF iter =    1 RMS gradient =   0.11E-06 energy =      -1140.6887582578
  outer SCF loop converged in   1 iterations or   50 steps


 *** WARNING in qs_loc_utils.F:1500 :: User requested the calculation of ***
 *** the localized wavefunction but the section LOCALIZE was not         ***
 *** specified. Localization will not be performed!                      ***


 -------------------------------------------------------------------------------
 -                                                                             -
 -                                 BSSE RESULTS                                -
 -                                                                             -
 -                 CP-corrected Total energy:    -1140.687256                  -
 -                                                                             -
 -                       1-body contribution:    -1093.480070                  -
 -                       1-body contribution:      -47.167810                  -
 -                                                                             -
 -                       2-body contribution:       -0.039376                  -
 -                 BSSE-free interaction energy:       -0.039376               -
 -------------------------------------------------------------------------------

 -------------------------------------------------------------------------------
 -                                                                             -
 -                                DBCSR STATISTICS                             -
 -                                                                             -
 -------------------------------------------------------------------------------
 COUNTER                                    TOTAL       BLAS       SMM       ACC
 flops     9 x     9 x     9                96228     100.0%      0.0%      0.0%
 flops     9 x     9 x   100               534600     100.0%      0.0%      0.0%
 flops     9 x     9 x    32               559872     100.0%      0.0%      0.0%
 flops     9 x     9 x   105               850500     100.0%      0.0%      0.0%
 flops    13 x     9 x     9              4700592     100.0%      0.0%      0.0%
 flops     9 x    13 x     9              4852224     100.0%      0.0%      0.0%
 flops     9 x     9 x   128              5163264     100.0%      0.0%      0.0%
 flops    13 x     9 x   100             47876400     100.0%      0.0%      0.0%
 flops     9 x    13 x   100             49420800     100.0%      0.0%      0.0%
 flops    13 x     9 x    32             50139648     100.0%      0.0%      0.0%
 flops     9 x    13 x    32             51757056     100.0%      0.0%      0.0%
 flops    13 x     9 x   105             76167000     100.0%      0.0%      0.0%
 flops     9 x    13 x   105             78624000     100.0%      0.0%      0.0%
 flops    13 x     9 x   128            462398976     100.0%      0.0%      0.0%
 flops     9 x    13 x   128            477315072     100.0%      0.0%      0.0%
 flops    13 x    13 x     9           1191928608     100.0%      0.0%      0.0%
 flops    13 x    13 x    32          12713905152     100.0%      0.0%      0.0%
 flops    13 x    13 x   105          19313658000     100.0%      0.0%      0.0%
 flops    13 x    13 x   100          24280027200     100.0%      0.0%      0.0%
 flops    13 x    13 x   128         163868110848     100.0%      0.0%      0.0%
 flops inhomo. stacks                           0       0.0%      0.0%      0.0%
 flops total                       222.678086E+09     100.0%      0.0%      0.0%
 flops max/rank                     14.482973E+09     100.0%      0.0%      0.0%
 matmuls inhomo. stacks                         0       0.0%      0.0%      0.0%
 matmuls total                            6677954     100.0%      0.0%      0.0%
 number of processed stacks                 13566     100.0%      0.0%      0.0%
 average stack size                                   492.3       0.0       0.0
 marketing flops                   568.983945E+09
 -------------------------------------------------------------------------------
 # multiplications                            182
 max memory usage/rank               1.003995E+09
 # max total images/rank                        1
 # max 3D layers                                1
 # MPI messages exchanged                   17472
 MPI messages size (bytes):
  total size                         7.228536E+09
  min size                           0.000000E+00
  max size                         648.192000E+03
  average size                     413.721156E+03
 MPI breakdown and total messages size (bytes):
             size <=      128                2700                        0
       128 < size <=     8192                 180                   116640
      8192 < size <=    32768                   0                        0
     32768 < size <=   131072                 864                 38957760
    131072 < size <=  4194304               13728               7189464096
   4194304 < size <= 16777216                   0                        0
  16777216 < size                               0                        0
 -------------------------------------------------------------------------------
 -                                                                             -
 -                      DBCSR MESSAGE PASSING PERFORMANCE                      -
 -                                                                             -
 -------------------------------------------------------------------------------
 ROUTINE             CALLS      AVE VOLUME [Bytes]
 MP_Bcast               21                     12.
 MP_Allreduce         1338                      9.
 MP_Alltoall          5156                 433273.
 MP_ISend             2912                 167232.
 MP_IRecv             2912                 153957.
 -------------------------------------------------------------------------------

 -------------------------------------------------------------------------------
 -                                                                             -
 -                                DBM STATISTICS                               -
 -                                                                             -
 -------------------------------------------------------------------------------
    M  x    N  x    K                                          COUNT     PERCENT
 -------------------------------------------------------------------------------

 -------------------------------------------------------------------------------
 -                                                                             -
 -                                GRID STATISTICS                              -
 -                                                                             -
 -------------------------------------------------------------------------------
 LP    KERNEL             BACKEND                              COUNT     PERCENT
 4     collocate ortho    REF                               17634864      50.16%
 4     integrate ortho    REF                               17182688      48.88%
 3     collocate ortho    REF                                 158600       0.45%
 3     integrate ortho    REF                                 154700       0.44%
 0     collocate general  REF                                   9264       0.03%
 2     collocate ortho    REF                                   7803       0.02%
 2     integrate ortho    REF                                   7599       0.02%
 -------------------------------------------------------------------------------

 MEMORY| Estimated peak process memory [MiB]                                 958

 -------------------------------------------------------------------------------
 -                                                                             -
 -                         MESSAGE PASSING PERFORMANCE                         -
 -                                                                             -
 -------------------------------------------------------------------------------

 ROUTINE             CALLS      AVE VOLUME [Bytes]
 MP_Group               24
 MP_Bcast              517                1868727.
 MP_Allreduce         2691                   1794.
 MP_Sync               236
 MP_Alltoall          2466               27080018.
 MP_SendRecv          7794                 231816.
 MP_ISendRecv         5460                 187520.
 MP_Wait             13633
 MP_comm_split          30
 MP_ISend             5944                1534476.
 MP_IRecv             5944                1534237.
 MP_Recv               115                 613153.
 -------------------------------------------------------------------------------


 -------------------------------------------------------------------------------
 -                                                                             -
 -                           R E F E R E N C E S                               -
 -                                                                             -
 -------------------------------------------------------------------------------
 
 CP2K version 2023.1, the CP2K developers group (2023).
 CP2K is freely available from https://www.cp2k.org/ .

 Kuehne,Thomas D.; Iannuzzi,Marcella; Del Ben,Mauro;
 Rybkin,Vladimir V.; Seewald,Patrick; Stein,Frederick; Laino,Teodoro;
 Khaliullin,Rustam Z.; Schuett,Ole; Schiffmann,Florian; Golze,Dorothea;
 Wilhelm,Jan; Chulkov,Sergey; Bani-Hashemian,Mohammad Hossein;
 Weber,Valery; Borstnik,Urban; Taillefumier,Mathieu;
 Jakobovits,Alice Shoshana; Lazzaro,Alfio; Pabst,Hans; Mueller,Tiziano;
 Schade,Robert; Guidon,Manuel; Andermatt,Samuel; Holmberg,Nico;
 Schenter,Gregory K.; Hehn,Anna; Bussy,Augustin; Belleflamme,Fabian;
 Tabacchi,Gloria; Gloess,Andreas; Lass,Michael; Bethune,Iain;
 Mundy,Christopher J.; Plessl,Christian; Watkins,Matt;
 VandeVondele,Joost; Krack,Matthias; Hutter,Juerg. 
 The Journal of Chemical Physics, 152 (19), (2020). 
 CP2K: An electronic structure and molecular dynamics software package -
 Quickstep: Efficient and accurate electronic structure calculations.
 https://doi.org/10.1063/5.0007045

 Goerigk, Lars; Hansen, Andreas; Bauer, Christoph; Ehrlich, Stephan;
 Najibi, Asim; Grimme, Stefan. , 19 (48), (2017). 
 A look at the density functional theory zoo with the advanced GMTKN55 database
 for general main group thermochemistry, kinetics and noncovalent interactions.
 https://doi.org/10.1039/C7CP04913G

 Schuett, Ole; Messmer, Peter; Hutter, Juerg; VandeVondele, Joost. 
 Electronic Structure Calculations on Graphics Processing Units, John
 Wiley & Sons, Ltd, 173-190 (2016). 
 GPU-Accelerated Sparse Matrix-Matrix Multiplication for
 Linear Scaling Density Functional Theory.
 https://doi.org/10.1002/9781118670712.ch8

 Borstnik, U; VandeVondele, J; Weber, V; Hutter, J. 
 PARALLEL COMPUTING, 40 (5-6), 47-58 (2014). 
 Sparse matrix multiplication: The distributed block-compressed sparse
 row library.
 https://doi.org/10.1016/j.parco.2014.03.012

 Hutter, J; Iannuzzi, M; Schiffmann, F; VandeVondele, J. 
 WIREs Comput Mol Sci., 4 (1), 15-25 (2014). 
 CP2K: atomistic simulations of condensed matter systems.
 https://doi.org/10.1002/wcms.1159

 Marek, A; Blum, V; Johanni, R; Havu, V; Lang, B; Auckenthaler, T;
 Heinecke, A; Bungartz, H; Lederer, H. 
 Journal of Physics: Condensed Matter, 26 (21), (2014). 
 The ELPA library: scalable parallel eigenvalue solutions for
 electronic structure
 theory and computational science.
 https://doi.org/10.1088/0953-8984/26/21/213201

 Grimme, S; Ehrlich, S; Goerigk, L. 
 JOURNAL OF COMPUTATIONAL CHEMISTRY, 32, 1456 (2011). 
 Effect of the damping function in dispersion corrected density functional theory.
 https://doi.org/10.1002/jcc.21759

 Grimme, S; Antony, J; Ehrlich, S; Krieg, H. 
 JOURNAL OF CHEMICAL PHYSICS, 132 (15), 154104 (2010). 
 A consistent and accurate ab initio parametrization of density
 functional dispersion correction (DFT-D) for the 94 elements H-Pu.
 https://doi.org/10.1063/1.3382344

 VandeVondele, J; Hutter, J. 
 JOURNAL OF CHEMICAL PHYSICS, 127 (11), 114105 (2007). 
 Gaussian basis sets for accurate calculations on molecular systems in
 gas and condensed phases.
 https://doi.org/10.1063/1.2770708

 Krack, M. 
 THEORETICAL CHEMISTRY ACCOUNTS, 114 (1-3), 145-152 (2005). 
 Pseudopotentials for H to Kr optimized for gradient-corrected
 exchange-correlation functionals.
 https://doi.org/10.1007/s00214-005-0655-y

 VandeVondele, J; Krack, M; Mohamed, F; Parrinello, M; Chassaing, T;
 Hutter, J. COMPUTER PHYSICS COMMUNICATIONS, 167 (2), 103-128 (2005). 
 QUICKSTEP: Fast and accurate density functional calculations using a
 mixed Gaussian and plane waves approach.
 https://doi.org/10.1016/j.cpc.2004.12.014

 Frigo, M; Johnson, SG. 
 PROCEEDINGS OF THE IEEE, 93 (2), 216-231 (2005). 
 The design and implementation of FFTW3.
 https://doi.org/10.1109/JPROC.2004.840301

 Hartwigsen, C; Goedecker, S; Hutter, J. 
 PHYSICAL REVIEW B, 58 (7), 3641-3662 (1998). 
 Relativistic separable dual-space Gaussian pseudopotentials from H to Rn.
 https://doi.org/10.1103/PhysRevB.58.3641

 Lippert, G; Hutter, J; Parrinello, M. 
 MOLECULAR PHYSICS, 92 (3), 477-487 (1997). 
 A hybrid Gaussian and plane wave density functional scheme.
 https://doi.org/10.1080/002689797170220

 Perdew, JP; Burke, K; Ernzerhof, M. 
 PHYSICAL REVIEW LETTERS, 77 (18), 3865-3868 (1996). 
 Generalized gradient approximation made simple.
 https://doi.org/10.1103/PhysRevLett.77.3865

 Goedecker, S; Teter, M; Hutter, J. 
 PHYSICAL REVIEW B, 54 (3), 1703-1710 (1996). 
 Separable dual-space Gaussian pseudopotentials.
 https://doi.org/10.1103/PhysRevB.54.1703


 -------------------------------------------------------------------------------
 -                                                                             -
 -                                T I M I N G                                  -
 -                                                                             -
 -------------------------------------------------------------------------------
 SUBROUTINE                       CALLS  ASD         SELF TIME        TOTAL TIME
                                MAXIMUM       AVERAGE  MAXIMUM  AVERAGE  MAXIMUM
 CP2K                                 1  1.0     4.11     4.23 24736.65 24736.69
 qs_energies                          5  2.0     0.00     0.00 24679.24 24679.59
 scf_env_do_scf                       5  3.0     0.00     0.00 24600.59 24600.95
 scf_env_do_scf_inner_loop          182  4.0     0.01     0.02 24600.59 24600.95
 qs_scf_new_mos                     182  5.0     0.01     0.02 23156.49 23157.38
 eigensolver                        182  6.0     0.02     0.05 22852.20 22854.34
 cp_fm_diag_elpa                    152  7.0     0.00     0.00 21313.09 21317.09
 cp_fm_diag_elpa_base               152  8.0 21301.15 21304.17 21305.13 21305.58
 cp_fm_triangular_multiply          546  7.0  1478.21  1484.91  1478.21  1484.91
 qs_ks_update_qs_env                182  5.0     0.00     0.00   707.06   708.24
 rebuild_ks_matrix                  182  6.0     0.00     0.00   695.93   697.16
 qs_ks_build_kohn_sham_matrix       182  7.0     0.05     0.06   695.93   697.16
 qs_rho_update_rho_low              187  5.0     0.00     0.00   583.16   584.36
 calculate_rho_elec                 187  6.0     1.38     1.59   583.15   584.36
 rs_pw_transfer                    1481  9.5     0.04     0.09   446.39   549.56
 density_rs2pw                      187  7.0     0.03     0.05   399.10   503.75
 -------------------------------------------------------------------------------

 The number of warnings for this run is : 6
 
 -------------------------------------------------------------------------------
  **** **** ******  **  PROGRAM ENDED AT                 2025-06-22 22:33:48.097
 ***** ** ***  *** **   PROGRAM RAN ON                                sebnode129
 **    ****   ******    PROGRAM RAN BY                                    luehrs
 ***** **    ** ** **   PROGRAM PROCESS ID                               1826206
  **** **  *******  **  PROGRAM STOPPED IN /home/luehrs/PhD/Sodium_batteries/Sod
                                           ium-graphene-curvature/Sinus_surface2
                                           /Sinus1
