     193
 i =       47, E =     -1140.5784888914
  C        18.5319268723        2.1514786456       -0.8414663796
  C         6.3183035629       12.9033837600        3.5903324392
  C         7.5255451444       13.6168658164        3.8352236996
  C         8.7557543668       12.9048474920        3.9158374569
  C         9.9865144277       13.6169190788        3.8265753448
  C        11.1950911971       12.9050480614        3.5767144844
  C        12.3663919437       13.6166474495        3.1890312613
  C        13.4892391144       12.9034761672        2.6804486171
  C        14.5608317124       13.6156988622        2.0721247716
  C        15.5881070453       12.9021482469        1.3921403346
  C        16.5798995864       13.6149385659        0.6612337003
  C        17.5551258492       12.9015658025       -0.0915923449
  C        18.5319561827       13.6145380927       -0.8416537115
  C        19.5326831595       12.9012270469       -1.5603976753
  C        20.5708996510       13.6143660168       -2.2231694487
  C        21.6552071003       12.9009819335       -2.8076544320
  C        22.7854132576       13.6143363260       -3.2968942404
  C        21.6550778260       11.4644323407       -2.8082769535
  C        19.5329803761       11.4644672254       -1.5603216247
  C        17.5557105323       11.4647458888       -0.0913203541
  C        15.5889865736       11.4653525690        1.3925867107
  C        13.4910974660       11.4670848781        2.6815451720
  C        12.3680233300       10.7550757976        3.1891351773
  C        11.1966041304       11.4693500444        3.5763057292
  C         9.9865823762       10.7598995077        3.8243272674
  C         8.7545900246       11.4695550872        3.9147168589
  C         7.5243945171       10.7551948226        3.8331815751
  C         6.3169749684       11.4674058902        3.5904439187
  C         5.1496023919       10.7524647739        3.2015916758
  C        20.5710352185       10.7511684475       -2.2234539282
  C        18.5329747015       10.7513610406       -0.8408106681
  C        16.5809726160       10.7517315179        0.6619043245
  C        14.5625674810       10.7526344253        2.0737069701
  C        20.5710508176        9.3144629488       -2.2237224398
  C        19.5335087655        8.6013021869       -1.5599822255
  C        18.5333815793        9.3145886108       -0.8406553151
  C        17.5564748524        8.6015438680       -0.0907201356
  C        16.5816238083        9.3149095093        0.6623363876
  C        15.5902549416        8.6018614837        1.3938760894
  C        14.5641400692        9.3158863346        2.0748921422
  C        13.4940098539        8.6023632003        2.6847891782
  C        12.3723580796        9.3184739298        3.1913264218
  C        11.1999830684        8.6035321875        3.5746593266
  C         9.9863140927        9.3214591161        3.8182211711
  C         8.7508726286        8.6037217857        3.9122796241
  C         7.5206659210        9.3190474305        3.8350136806
  C         6.3153358067        8.6021982117        3.5922004533
  C         5.1483561139        9.3162239569        3.2026053036
  C         4.0293998409        8.6016378765        2.6909704941
  C         4.0300635993        7.1653525788        2.6907519361
  C         5.1494275381        6.4513133076        3.2029480730
  C         6.3165357769        7.1651510153        3.5928705510
  C         7.5221504904        6.4494239103        3.8407409104
  C         8.7530969900        7.1630569357        3.9197704800
  C         9.9882068552        6.4488546483        3.8345106661
  C        11.1993753166        7.1632208999        3.5803425505
  C        12.3719825936        6.4498285731        3.1955059815
  C        13.4932195379        7.1650352776        2.6855237709
  C        14.5634440849        6.4516363708        2.0754261869
  C        15.5898341339        7.1651804422        1.3939263147
  C        16.5812320777        6.4518291140        0.6624807399
  C        17.5564714936        7.1648681093       -0.0904117444
  C        18.5333238547        6.4515454810       -0.8403784624
  C        19.5335006989        7.1645864625       -1.5598286097
  C        18.5328872724        5.0147403957       -0.8405609442
  C        17.5554598143        4.3016875332       -0.0910146293
  C        16.5805828953        5.0149410250        0.6621543469
  C        15.5883127032        4.3018590920        1.3929511912
  C        14.5619308643        5.0148161648        2.0745061909
  C        13.4907213285        4.3012152835        2.6836432112
  C        12.3683581120        5.0133109020        3.1941509112
  C        11.1965590984        4.3005490225        3.5824360793
  C         9.9879077411        5.0112942958        3.8354182087
  C         8.7560629612        4.3003947176        3.9211226652
  C         7.5253655680        5.0134285686        3.8388609474
  C         6.3181095557        4.3009784602        3.5921042869
  C         5.1507732120        5.0150287276        3.2020222874
  C         4.0313679589        4.3016576644        2.6898735383
  C         2.9635740066        5.0150751080        2.0767421823
  C         2.9628959109        6.4516365527        2.0770977074
  C         1.9409174123        4.3016085206        1.3916930317
  C         1.9411522170        2.8649188757        1.3914218037
  C         2.9640408809        2.1517777356        2.0761750073
  C         4.0316094182        2.8653104897        2.6892513211
  C         5.1509835856        2.1519789817        3.2011963644
  C         6.3185812923        2.8651025704        3.5910533859
  C         7.5260063146        2.1524587642        3.8356940202
  C         8.7562632278        2.8647995296        3.9178651032
  C         9.9866501516        2.1525092180        3.8277633826
  C        11.1951631686        2.8645400960        3.5788802540
  C        12.3661916882        2.1526249514        3.1898492494
  C        13.4893653065        2.8649402807        2.6815090339
  C        14.5606736896        2.1521907039        2.0724668844
  C        15.5879201080        2.8651023538        1.3923315022
  C        16.5797090682        2.1519305505        0.6613262748
  C        17.5549381078        2.8648072356       -0.0916217926
  C        20.5708970881        2.1511314600       -2.2230269701
  C        21.6550891924        2.8643936397       -2.8077732996
  C        25.1643310678        2.1506832504       -3.9216959657
  C        26.3923147689        2.8643181182       -4.0180080346
  C        28.8348660539        2.8642467231       -3.7354822864
  C        27.6224053490        2.1506642800       -3.9539541589
  C        33.2395106721        2.8643296647       -1.5883775540
  C        30.0111346550        2.1507562752       -3.3686816636
  C        31.1385222853        2.8642271362       -2.8719009255
  C        32.2126020804        2.1509598865       -2.2684912152
  C        34.2290072632        2.1511806306       -0.8551802278
  C        19.5329101382        4.3013668557       -1.5600344932
  C        22.7854623284        2.1508555648       -3.2966499011
  C        19.5326762134        2.8645517699       -1.5602372743
  C        35.2010583393        2.8645889321       -0.0988814320
  C         0.9515064819        2.1514642354        0.6584914925
  C        23.9574881806        2.8643268174       -3.6742669971
  C        23.9574563849       12.9007627589       -3.6743910441
  C        25.1643650034       13.6142333643       -3.9216611922
  C        26.3923334930       12.9006448245       -4.0182789330
  C        27.6223977752       13.6142156459       -3.9538844099
  C        28.8349183438       12.9007214353       -3.7357944119
  C        30.0110635290       13.6141780041       -3.3685644291
  C        31.1386664948       12.9008286612       -2.8722606693
  C        32.2125965422       13.6142077902       -2.2686141058
  C        33.2393106091       12.9010537566       -1.5882518900
  C        34.2287602005       13.6143250854       -0.8550270025
  C        35.2005192264       12.9012211792       -0.0983997293
  C        36.1712119274       13.6146041593        0.6586392482
  C        37.1607246449       12.9014939091        1.3916592996
  C        38.1837591858       13.6151084838        2.0762113953
  C        39.2512490986       12.9020316620        2.6892548845
  C        40.3706775398       13.6160248423        3.2010704419
  C        39.2503415321       11.4656041099        2.6898017447
  C        37.1600562100       11.4648470864        1.3920202865
  C        35.2004805724       11.4644908045       -0.0987357313
  C        33.2391854675       11.4643391131       -1.5883323303
  C        31.1385239776       11.4642128224       -2.8721344296
  C        30.0111017030       10.7507754284       -3.3688182527
  C        28.8349336847       11.4642805338       -3.7358522502
  C        27.6224723835       10.7506991363       -3.9542692620
  C        26.3923678569       11.4643265898       -4.0180946634
  C        25.1643725870       10.7507315610       -3.9217302351
  C        23.9574518575       11.4642990483       -3.6745860104
  C        22.7852400396       10.7508733305       -3.2975298222
  C        38.1825802849       10.7516397932        2.0771224727
  C        36.1708808846       10.7513385664        0.6585542518
  C        34.2289446432       10.7511524375       -0.8556266127
  C        32.2125513376       10.7509389534       -2.2687079126
  C        38.1821571401        9.3151186635        2.0774111698
  C        37.1599631470        8.6014469506        1.3919930373
  C        36.1710329449        9.3146419220        0.6582119707
  C        35.2013291995        8.6012778804       -0.0998567512
  C        34.2291926493        9.3143813997       -0.8559770879
  C        33.2395811885        8.6010838122       -1.5888507734
  C        32.2123298175        9.3142092897       -2.2683809812
  C        31.1383570520        8.6008630289       -2.8719151395
  C        30.0110616346        9.3142029120       -3.3688746810
  C        28.8349695162        8.6007468200       -3.7362387769
  C        27.6224396313        9.3142487176       -3.9542126669
  C        26.3923477501        8.6006835117       -4.0180180973
  C        25.1643894321        9.3142873707       -3.9216121866
  C        23.9574154195        8.6008189766       -3.6747013891
  C        22.7851542316        9.3143556181       -3.2978865729
  C        21.6548079309        8.6010084390       -2.8089782361
  C        21.6547345295        7.1644416174       -2.8090187601
  C        22.7851145783        6.4508925964       -3.2977764009
  C        23.9574100048        7.1643403648       -3.6745828276
  C        25.1643800420        6.4507440293       -3.9214215882
  C        26.3923479964        7.1643555473       -4.0179641913
  C        27.6224316907        6.4506833783       -3.9541364840
  C        28.8349428714        7.1642906428       -3.7360792026
  C        30.0110717645        6.4508186268       -3.3687926999
  C        31.1383186150        7.1642511640       -2.8717290505
  C        32.2124198147        6.4509856450       -2.2683708737
  C        33.2395877126        7.1643760490       -1.5888005010
  C        34.2297015939        6.4512351346       -0.8564486491
  C        35.2016283587        7.1646053535       -0.1000956976
  C        36.1716778178        6.4514716039        0.6577277728
  C        37.1602718374        7.1649666472        1.3919036724
  C        36.1717974932        5.0147533646        0.6578579930
  C        35.2013976934        4.3013681790       -0.0994687860
  C        34.2295845544        5.0144425012       -0.8561252921
  C        33.2395707120        4.3010714524       -1.5885354624
  C        32.2125201023        5.0142360069       -2.2683983928
  C        31.1384866412        4.3008561056       -2.8718675449
  C        30.0109907549        5.0142270034       -3.3684108630
  C        28.8349631399        4.3007034737       -3.7358874697
  C        27.6224532194        5.0142174649       -3.9540284494
  C        26.3923546055        4.3006524416       -4.0179553734
  C        25.1643957240        5.0142808934       -3.9214189902
  C        23.9574536390        4.3008087179       -3.6742866645
  C        22.7851376633        5.0143476147       -3.2975490149
  C        21.6550008617        4.3009736591       -2.8081153327
  C        20.5709768011        5.0144163342       -2.2232626786
  C        20.5709538861        6.4511478422       -2.2236641450
 Na        10.1903604892        8.3609856547        6.2341928245
