 DBCSR| CPU Multiplication driver                                           BLAS (U)
 DBCSR| Multrec recursion limit                                              512 (U)
 DBCSR| Multiplication stack size                                           1000 (D)
 DBCSR| Maximum elements for images                                    UNLIMITED (U)
 DBCSR| Multiplicative factor virtual images                                   1 (U)
 DBCSR| Use multiplication densification                                       T (D)
 DBCSR| Multiplication size stacks                                             3 (U)
 DBCSR| Use memory pool for CPU allocation                                     F (U)
 DBCSR| Number of 3D layers                                               SINGLE (U)
 DBCSR| Use MPI memory allocation                                              F (U)
 DBCSR| Use RMA algorithm                                                      F (U)
 DBCSR| Use Communication thread                                               T (U)
 DBCSR| Communication thread load                                             87 (D)
 DBCSR| MPI: My process id                                                     0
 DBCSR| MPI: Number of processes                                              16
 DBCSR| OMP: Current number of threads                                         1
 DBCSR| OMP: Max number of threads                                             1
 DBCSR| Split modifier for TAS multiplication algorithm                  1.0E+00 (U)


  **** **** ******  **  PROGRAM STARTED AT               2025-06-22 22:33:49.946
 ***** ** ***  *** **   PROGRAM STARTED ON                            sebnode129
 **    ****   ******    PROGRAM STARTED BY                                luehrs
 ***** **    ** ** **   PROGRAM PROCESS ID                               1827537
  **** **  *******  **  PROGRAM STARTED IN /home/luehrs/PhD/Sodium_batteries/Sod
                                           ium-graphene-curvature/Sinus_surface2
                                           /Sinus8

 CP2K| version string:                                       CP2K version 2023.1
 CP2K| source code revision number:                                  git:b888bd8
 CP2K| cp2kflags: omp libint fftw3 libxc elpa parallel scalapack spglib         
 CP2K| is freely available from                            https://www.cp2k.org/
 CP2K| Program compiled at                          Tue Jan 10 19:52:03 UTC 2023
 CP2K| Program compiled on                                            x86-ubc-01
 CP2K| Program compiled for                                Linux-x86_64-gfortran
 CP2K| Data directory path                                       /usr/share/cp2k
 CP2K| Input file name                                        input.zig-zag1.inp

 GLOBAL| Force Environment number                                              1
 GLOBAL| Basis set file name                                      ./BASIS_MOLOPT
 GLOBAL| Potential file name                                    ./GTH_POTENTIALS
 GLOBAL| MM Potential file name                                     MM_POTENTIAL
 GLOBAL| Coordinate file name                               sinus2_8_relaxed.xyz
 GLOBAL| Method name                                                        CP2K
 GLOBAL| Project name                                graphene_sinus2_Sodium_BSSE
 GLOBAL| Run type                                                           BSSE
 GLOBAL| FFT library                                                       FFTW3
 GLOBAL| Diagonalization library                                            ELPA
 GLOBAL| DGEMM library                                                      BLAS
 GLOBAL| Minimum number of eigenvectors for ELPA usage                        16
 GLOBAL| Orthonormality check for eigenvectors                          DISABLED
 GLOBAL| Matrix multiplication library                                 ScaLAPACK
 GLOBAL| All-to-all communication in single precision                          F
 GLOBAL| FFTs using library dependent lengths                                  F
 GLOBAL| Grid backend                                                       AUTO
 GLOBAL| Global print level                                                  LOW
 GLOBAL| MPI I/O enabled                                                       T
 GLOBAL| Total number of message passing processes                            16
 GLOBAL| Number of threads for this process                                    1
 GLOBAL| This output is from process                                           0
 GLOBAL| Stack size for threads created by OpenMP (OMP_STACKSIZE)        default
 GLOBAL| CPU model name                          AMD EPYC 7513 32-Core Processor

 MEMORY| system memory details [Kb]
 MEMORY|                        rank 0           min           max       average
 MEMORY| MemTotal            131832300     131832300     131832300     131832300
 MEMORY| MemFree              83767228      83767228      83767228      83767228
 MEMORY| Buffers                313048        313048        313048        313048
 MEMORY| Cached                 867128        867124        867128        867125
 MEMORY| Slab                   833528        833528        833528        833528
 MEMORY| SReclaimable           175400        175400        175400        175400
 MEMORY| MemLikelyFree        85122804      85122800      85122804      85122801


 GENERATE|  Preliminary Number of Bonds generated:                             0
 GENERATE|  Achieved consistency in connectivity generation.

 *******************************************************************************
 *******************************************************************************
 **                                                                           **
 **     #####                         ##              ##                      **
 **    ##   ##            ##          ##              ##                      **
 **   ##     ##                       ##            ######                    **
 **   ##     ##  ##   ##  ##   #####  ##  ##   ####   ##    #####    #####    **
 **   ##     ##  ##   ##  ##  ##      ## ##   ##      ##   ##   ##  ##   ##   **
 **   ##  ## ##  ##   ##  ##  ##      ####     ###    ##   ######   ######    **
 **    ##  ###   ##   ##  ##  ##      ## ##      ##   ##   ##       ##        **
 **     #######   #####   ##   #####  ##  ##  ####    ##    #####   ##        **
 **           ##                                                    ##        **
 **                                                                           **
 **                                                ... make the atoms dance   **
 **                                                                           **
 **            Copyright (C) by CP2K developers group (2000-2022)             **
 **                      J. Chem. Phys. 152, 194103 (2020)                    **
 **                                                                           **
 *******************************************************************************


 TOTAL NUMBERS AND MAXIMUM NUMBERS

  Total number of            - Atomic kinds:                                   2
                             - Atoms:                                        193
                             - Shell sets:                                   193
                             - Shells:                                       965
                             - Primitive Cartesian functions:                967
                             - Cartesian basis functions:                   2697
                             - Spherical basis functions:                   2505

  Maximum angular momentum of- Orbital basis functions:                        2
                             - Local part of the GTH pseudopotential:          2
                             - Non-local part of the GTH pseudopotential:      1


 SCF PARAMETERS         Density guess:                                    ATOMIC
                        --------------------------------------------------------
                        max_scf:                                             300
                        max_scf_history:                                       0
                        max_diis:                                              4
                        --------------------------------------------------------
                        eps_scf:                                        3.00E-07
                        eps_scf_history:                                0.00E+00
                        eps_diis:                                       1.00E-01
                        eps_eigval:                                     1.00E-05
                        --------------------------------------------------------
                        level_shift [a.u.]:                             0.000000
                        added MOs                                       100    0
                        --------------------------------------------------------
                        Mixing method:                            BROYDEN_MIXING
                                                charge density mixing in g-space
                        --------------------------------------------------------
                        Smear method:                                FERMI_DIRAC
                        Electronic temperature [K]:                        300.0
                        Electronic temperature [a.u.]:                  9.50E-04
                        Accuracy threshold:                             1.00E-10
                        --------------------------------------------------------
                        Outer loop SCF in use 
                        No variables optimised in outer loop
                        eps_scf                                         1.00E-06
                        max_scf                                              300
                        DIIS optimization
                        DIIS buffer length                                     3
                        step_size                                       5.00E-01

 -------------------------------------------------------------------------------
 -                                                                             -
 -  BSSE CALCULATION         FRAGMENT CONF: 10        FRAGMENT SUBCONF: 10     -
 -                           CHARGE =     0           MULTIPLICITY =     0     -
 -                                                                             -
 -                 ATOM INDEX                              ATOM NAME           -
 -                 ----------                              ---------           -
 -                      1                                   C                  -
 -                      2                                   C                  -
 -                      3                                   C                  -
 -                      4                                   C                  -
 -                      5                                   C                  -
 -                      6                                   C                  -
 -                      7                                   C                  -
 -                      8                                   C                  -
 -                      9                                   C                  -
 -                     10                                   C                  -
 -                     11                                   C                  -
 -                     12                                   C                  -
 -                     13                                   C                  -
 -                     14                                   C                  -
 -                     15                                   C                  -
 -                     16                                   C                  -
 -                     17                                   C                  -
 -                     18                                   C                  -
 -                     19                                   C                  -
 -                     20                                   C                  -
 -                     21                                   C                  -
 -                     22                                   C                  -
 -                     23                                   C                  -
 -                     24                                   C                  -
 -                     25                                   C                  -
 -                     26                                   C                  -
 -                     27                                   C                  -
 -                     28                                   C                  -
 -                     29                                   C                  -
 -                     30                                   C                  -
 -                     31                                   C                  -
 -                     32                                   C                  -
 -                     33                                   C                  -
 -                     34                                   C                  -
 -                     35                                   C                  -
 -                     36                                   C                  -
 -                     37                                   C                  -
 -                     38                                   C                  -
 -                     39                                   C                  -
 -                     40                                   C                  -
 -                     41                                   C                  -
 -                     42                                   C                  -
 -                     43                                   C                  -
 -                     44                                   C                  -
 -                     45                                   C                  -
 -                     46                                   C                  -
 -                     47                                   C                  -
 -                     48                                   C                  -
 -                     49                                   C                  -
 -                     50                                   C                  -
 -                     51                                   C                  -
 -                     52                                   C                  -
 -                     53                                   C                  -
 -                     54                                   C                  -
 -                     55                                   C                  -
 -                     56                                   C                  -
 -                     57                                   C                  -
 -                     58                                   C                  -
 -                     59                                   C                  -
 -                     60                                   C                  -
 -                     61                                   C                  -
 -                     62                                   C                  -
 -                     63                                   C                  -
 -                     64                                   C                  -
 -                     65                                   C                  -
 -                     66                                   C                  -
 -                     67                                   C                  -
 -                     68                                   C                  -
 -                     69                                   C                  -
 -                     70                                   C                  -
 -                     71                                   C                  -
 -                     72                                   C                  -
 -                     73                                   C                  -
 -                     74                                   C                  -
 -                     75                                   C                  -
 -                     76                                   C                  -
 -                     77                                   C                  -
 -                     78                                   C                  -
 -                     79                                   C                  -
 -                     80                                   C                  -
 -                     81                                   C                  -
 -                     82                                   C                  -
 -                     83                                   C                  -
 -                     84                                   C                  -
 -                     85                                   C                  -
 -                     86                                   C                  -
 -                     87                                   C                  -
 -                     88                                   C                  -
 -                     89                                   C                  -
 -                     90                                   C                  -
 -                     91                                   C                  -
 -                     92                                   C                  -
 -                     93                                   C                  -
 -                     94                                   C                  -
 -                     95                                   C                  -
 -                     96                                   C                  -
 -                     97                                   C                  -
 -                     98                                   C                  -
 -                     99                                   C                  -
 -                    100                                   C                  -
 -                    101                                   C                  -
 -                    102                                   C                  -
 -                    103                                   C                  -
 -                    104                                   C                  -
 -                    105                                   C                  -
 -                    106                                   C                  -
 -                    107                                   C                  -
 -                    108                                   C                  -
 -                    109                                   C                  -
 -                    110                                   C                  -
 -                    111                                   C                  -
 -                    112                                   C                  -
 -                    113                                   C                  -
 -                    114                                   C                  -
 -                    115                                   C                  -
 -                    116                                   C                  -
 -                    117                                   C                  -
 -                    118                                   C                  -
 -                    119                                   C                  -
 -                    120                                   C                  -
 -                    121                                   C                  -
 -                    122                                   C                  -
 -                    123                                   C                  -
 -                    124                                   C                  -
 -                    125                                   C                  -
 -                    126                                   C                  -
 -                    127                                   C                  -
 -                    128                                   C                  -
 -                    129                                   C                  -
 -                    130                                   C                  -
 -                    131                                   C                  -
 -                    132                                   C                  -
 -                    133                                   C                  -
 -                    134                                   C                  -
 -                    135                                   C                  -
 -                    136                                   C                  -
 -                    137                                   C                  -
 -                    138                                   C                  -
 -                    139                                   C                  -
 -                    140                                   C                  -
 -                    141                                   C                  -
 -                    142                                   C                  -
 -                    143                                   C                  -
 -                    144                                   C                  -
 -                    145                                   C                  -
 -                    146                                   C                  -
 -                    147                                   C                  -
 -                    148                                   C                  -
 -                    149                                   C                  -
 -                    150                                   C                  -
 -                    151                                   C                  -
 -                    152                                   C                  -
 -                    153                                   C                  -
 -                    154                                   C                  -
 -                    155                                   C                  -
 -                    156                                   C                  -
 -                    157                                   C                  -
 -                    158                                   C                  -
 -                    159                                   C                  -
 -                    160                                   C                  -
 -                    161                                   C                  -
 -                    162                                   C                  -
 -                    163                                   C                  -
 -                    164                                   C                  -
 -                    165                                   C                  -
 -                    166                                   C                  -
 -                    167                                   C                  -
 -                    168                                   C                  -
 -                    169                                   C                  -
 -                    170                                   C                  -
 -                    171                                   C                  -
 -                    172                                   C                  -
 -                    173                                   C                  -
 -                    174                                   C                  -
 -                    175                                   C                  -
 -                    176                                   C                  -
 -                    177                                   C                  -
 -                    178                                   C                  -
 -                    179                                   C                  -
 -                    180                                   C                  -
 -                    181                                   C                  -
 -                    182                                   C                  -
 -                    183                                   C                  -
 -                    184                                   C                  -
 -                    185                                   C                  -
 -                    186                                   C                  -
 -                    187                                   C                  -
 -                    188                                   C                  -
 -                    189                                   C                  -
 -                    190                                   C                  -
 -                    191                                   C                  -
 -                    192                                   C                  -
 -------------------------------------------------------------------------------

 *******************************************************************************
 *******************************************************************************
 **                                                                           **
 **     #####                         ##              ##                      **
 **    ##   ##            ##          ##              ##                      **
 **   ##     ##                       ##            ######                    **
 **   ##     ##  ##   ##  ##   #####  ##  ##   ####   ##    #####    #####    **
 **   ##     ##  ##   ##  ##  ##      ## ##   ##      ##   ##   ##  ##   ##   **
 **   ##  ## ##  ##   ##  ##  ##      ####     ###    ##   ######   ######    **
 **    ##  ###   ##   ##  ##  ##      ## ##      ##   ##   ##       ##        **
 **     #######   #####   ##   #####  ##  ##  ####    ##    #####   ##        **
 **           ##                                                    ##        **
 **                                                                           **
 **                                                ... make the atoms dance   **
 **                                                                           **
 **            Copyright (C) by CP2K developers group (2000-2022)             **
 **                      J. Chem. Phys. 152, 194103 (2020)                    **
 **                                                                           **
 *******************************************************************************


 TOTAL NUMBERS AND MAXIMUM NUMBERS

  Total number of            - Atomic kinds:                                   1
                             - Atoms:                                        192
                             - Shell sets:                                   192
                             - Shells:                                       960
                             - Primitive Cartesian functions:                960
                             - Cartesian basis functions:                   2688
                             - Spherical basis functions:                   2496

  Maximum angular momentum of- Orbital basis functions:                        2
                             - Local part of the GTH pseudopotential:          2
                             - Non-local part of the GTH pseudopotential:      0


 SCF PARAMETERS         Density guess:                                    ATOMIC
                        --------------------------------------------------------
                        max_scf:                                             300
                        max_scf_history:                                       0
                        max_diis:                                              4
                        --------------------------------------------------------
                        eps_scf:                                        3.00E-07
                        eps_scf_history:                                0.00E+00
                        eps_diis:                                       1.00E-01
                        eps_eigval:                                     1.00E-05
                        --------------------------------------------------------
                        level_shift [a.u.]:                             0.000000
                        added MOs                                       100    0
                        --------------------------------------------------------
                        Mixing method:                            BROYDEN_MIXING
                                                charge density mixing in g-space
                        --------------------------------------------------------
                        Smear method:                                FERMI_DIRAC
                        Electronic temperature [K]:                        300.0
                        Electronic temperature [a.u.]:                  9.50E-04
                        Accuracy threshold:                             1.00E-10
                        --------------------------------------------------------
                        Outer loop SCF in use 
                        No variables optimised in outer loop
                        eps_scf                                         1.00E-06
                        max_scf                                              300
                        DIIS optimization
                        DIIS buffer length                                     3
                        step_size                                       5.00E-01

 Number of electrons:                                                        768
 Number of occupied orbitals:                                                384
 Number of molecular orbitals:                                               484

 Number of orbital functions:                                               2496
 Number of independent orbital functions:                                   2496

 Extrapolation method: initial_guess


 SCF WAVEFUNCTION OPTIMIZATION

  Step     Update method      Time    Convergence         Total energy    Change
  ------------------------------------------------------------------------------
     1 NoMix/Diag. 0.10E+00  173.8     0.92561498     -1085.8271092172 -1.09E+03
     2 Broy./Diag. 0.10E+00  165.2     0.00227737     -1044.5936020649  4.12E+01
     3 Broy./Diag. 0.10E+00  178.0     0.02535348     -1076.6412991685 -3.20E+01
     4 Broy./Diag. 0.10E+00  190.3     0.00039210     -1090.2604105631 -1.36E+01
     5 Broy./Diag. 0.10E+00  168.5     0.00293688     -1090.8590801500 -5.99E-01
     6 Broy./Diag. 0.10E+00  158.4     0.00010029     -1092.0338663716 -1.17E+00
     7 Broy./Diag. 0.10E+00  173.7     0.00076019     -1092.5524026573 -5.19E-01
     8 Broy./Diag. 0.10E+00  166.0     0.00004955     -1092.9135891830 -3.61E-01
     9 Broy./Diag. 0.10E+00   63.0     0.00068242     -1093.0887808004 -1.75E-01
    10 Broy./Diag. 0.10E+00   35.2     0.00005726     -1093.3059876893 -2.17E-01
    11 Broy./Diag. 0.10E+00   38.4     0.00049644     -1093.2706629205  3.53E-02
    12 Broy./Diag. 0.10E+00   37.6     0.00004131     -1093.3496782799 -7.90E-02
    13 Broy./Diag. 0.10E+00   33.7     0.00044958     -1093.3902354583 -4.06E-02
    14 Broy./Diag. 0.10E+00    9.8     0.00012621     -1093.4351245142 -4.49E-02
    15 Broy./Diag. 0.10E+00    8.5     0.00026157     -1093.4642010694 -2.91E-02
    16 Broy./Diag. 0.10E+00    8.3     0.00014181     -1093.4824660162 -1.83E-02
    17 Broy./Diag. 0.10E+00    8.3     0.00006880     -1093.4734334019  9.03E-03
    18 Broy./Diag. 0.10E+00    8.3     0.00004670     -1093.4614385581  1.20E-02
    19 Broy./Diag. 0.10E+00    8.2     0.00004863     -1093.4601112424  1.33E-03
    20 Broy./Diag. 0.10E+00    8.2     0.00007464     -1093.4656431169 -5.53E-03
    21 Broy./Diag. 0.10E+00    8.2     0.00001339     -1093.4725330390 -6.89E-03
    22 Broy./Diag. 0.10E+00    8.2     0.00004632     -1093.4776735358 -5.14E-03
    23 Broy./Diag. 0.10E+00    8.2     0.00000403     -1093.4805349086 -2.86E-03
    24 Broy./Diag. 0.10E+00    8.2     0.00001667     -1093.4802177434  3.17E-04
    25 Broy./Diag. 0.10E+00    8.2     0.00000336     -1093.4801047191  1.13E-04
    26 Broy./Diag. 0.10E+00    8.2     0.00001519     -1093.4794024118  7.02E-04
    27 Broy./Diag. 0.10E+00    8.2     0.00000200     -1093.4794021923  2.20E-07
    28 Broy./Diag. 0.10E+00    8.2     0.00001029     -1093.4792597250  1.42E-04
    29 Broy./Diag. 0.10E+00    8.4     0.00000090     -1093.4794087509 -1.49E-04
    30 Broy./Diag. 0.10E+00   11.8     0.00000550     -1093.4797513425 -3.43E-04
    31 Broy./Diag. 0.10E+00   13.0     0.00000069     -1093.4798547496 -1.03E-04
    32 Broy./Diag. 0.10E+00   13.3     0.00000328     -1093.4799333573 -7.86E-05
    33 Broy./Diag. 0.10E+00   13.2     0.00000025     -1093.4799510473 -1.77E-05

  *** SCF run converged in    33 steps ***


  Electronic density on regular grids:       -768.0000000000        0.0000000000
  Core density on regular grids:              767.9999999993       -0.0000000007
  Total charge density on r-space grids:       -0.0000000006
  Total charge density g-space grids:          -0.0000000006

  Overlap energy of the core charge distribution:               0.00002984047008
  Self energy of the core charge distribution:              -2560.32152193892080
  Core Hamiltonian energy:                                    800.77817552683018
  Hartree energy:                                            1001.44752841321792
  Exchange-correlation energy:                               -335.14053091311672
  Dispersion energy:                                           -0.24363181708551
  Electronic entropic energy:                                  -0.00000015868642
  Fermi energy:                                                -0.11878040822890

  Total energy:                                             -1093.47995104729102

  outer SCF iter =    1 RMS gradient =   0.25E-06 energy =      -1093.4799510473
  outer SCF loop converged in   1 iterations or   33 steps


 *** WARNING in qs_loc_utils.F:1500 :: User requested the calculation of ***
 *** the localized wavefunction but the section LOCALIZE was not         ***
 *** specified. Localization will not be performed!                      ***


 -------------------------------------------------------------------------------
 -                                                                             -
 -  BSSE CALCULATION         FRAGMENT CONF: 01        FRAGMENT SUBCONF: 01     -
 -                           CHARGE =     0           MULTIPLICITY =     0     -
 -                                                                             -
 -                 ATOM INDEX                              ATOM NAME           -
 -                 ----------                              ---------           -
 -                    193                                   Na                 -
 -------------------------------------------------------------------------------

 *******************************************************************************
 *******************************************************************************
 **                                                                           **
 **     #####                         ##              ##                      **
 **    ##   ##            ##          ##              ##                      **
 **   ##     ##                       ##            ######                    **
 **   ##     ##  ##   ##  ##   #####  ##  ##   ####   ##    #####    #####    **
 **   ##     ##  ##   ##  ##  ##      ## ##   ##      ##   ##   ##  ##   ##   **
 **   ##  ## ##  ##   ##  ##  ##      ####     ###    ##   ######   ######    **
 **    ##  ###   ##   ##  ##  ##      ## ##      ##   ##   ##       ##        **
 **     #######   #####   ##   #####  ##  ##  ####    ##    #####   ##        **
 **           ##                                                    ##        **
 **                                                                           **
 **                                                ... make the atoms dance   **
 **                                                                           **
 **            Copyright (C) by CP2K developers group (2000-2022)             **
 **                      J. Chem. Phys. 152, 194103 (2020)                    **
 **                                                                           **
 *******************************************************************************

 *** WARNING in qs_environment.F:1486 :: More added MOs requested than     ***
 *** available. The full set of unoccupied MOs will be used. Use           ***
 *** 'ADDED_MOS -1' to always use all available MOs and to get rid of this ***
 *** warning.                                                              ***



 TOTAL NUMBERS AND MAXIMUM NUMBERS

  Total number of            - Atomic kinds:                                   1
                             - Atoms:                                          1
                             - Shell sets:                                     1
                             - Shells:                                         5
                             - Primitive Cartesian functions:                  7
                             - Cartesian basis functions:                      9
                             - Spherical basis functions:                      9

  Maximum angular momentum of- Orbital basis functions:                        1
                             - Local part of the GTH pseudopotential:          2
                             - Non-local part of the GTH pseudopotential:      1


 SCF PARAMETERS         Density guess:                                    ATOMIC
                        --------------------------------------------------------
                        max_scf:                                             300
                        max_scf_history:                                       0
                        max_diis:                                              4
                        --------------------------------------------------------
                        eps_scf:                                        3.00E-07
                        eps_scf_history:                                0.00E+00
                        eps_diis:                                       1.00E-01
                        eps_eigval:                                     1.00E-05
                        --------------------------------------------------------
                        level_shift [a.u.]:                             0.000000
                        added MOs                                         4    0
                        --------------------------------------------------------
                        Mixing method:                            BROYDEN_MIXING
                                                charge density mixing in g-space
                        --------------------------------------------------------
                        Smear method:                                FERMI_DIRAC
                        Electronic temperature [K]:                        300.0
                        Electronic temperature [a.u.]:                  9.50E-04
                        Accuracy threshold:                             1.00E-10
                        --------------------------------------------------------
                        Outer loop SCF in use 
                        No variables optimised in outer loop
                        eps_scf                                         1.00E-06
                        max_scf                                              300
                        DIIS optimization
                        DIIS buffer length                                     3
                        step_size                                       5.00E-01

 Number of electrons:                                                          9
 Number of occupied orbitals:                                                  5
 Number of molecular orbitals:                                                 9

 Number of orbital functions:                                                  9
 Number of independent orbital functions:                                      9

 Extrapolation method: initial_guess


 SCF WAVEFUNCTION OPTIMIZATION

  Step     Update method      Time    Convergence         Total energy    Change
  ------------------------------------------------------------------------------
     1 NoMix/Diag. 0.10E+00    1.2     0.02074057       -47.1659786912 -4.72E+01
     2 Broy./Diag. 0.10E+00    2.8     0.00009816       -47.1223759915  4.36E-02
     3 Broy./Diag. 0.10E+00    3.0     0.00101261       -47.1638498275 -4.15E-02
     4 Broy./Diag. 0.10E+00    2.1     0.00002409       -47.1716298923 -7.78E-03
     5 Broy./Diag. 0.10E+00    1.7     0.00025748       -47.1716537640 -2.39E-05
     6 Broy./Diag. 0.10E+00    2.3     0.00000829       -47.1717893652 -1.36E-04
     7 Broy./Diag. 0.10E+00    2.1     0.00014412       -47.1700686546  1.72E-03
     8 Broy./Diag. 0.10E+00    1.8     0.00001855       -47.1691016013  9.67E-04
     9 Broy./Diag. 0.10E+00    1.9     0.00019316       -47.1684564625  6.45E-04
    10 Broy./Diag. 0.10E+00    2.0     0.00000937       -47.1680755768  3.81E-04
    11 Broy./Diag. 0.10E+00    2.1     0.00009220       -47.1678884696  1.87E-04
    12 Broy./Diag. 0.10E+00    2.7     0.00000208       -47.1678412957  4.72E-05
    13 Broy./Diag. 0.10E+00    2.2     0.00000541       -47.1679542521 -1.13E-04
    14 Broy./Diag. 0.10E+00    2.0     0.00000080       -47.1679744765 -2.02E-05
    15 Broy./Diag. 0.10E+00    2.0     0.00001125       -47.1678061631  1.68E-04
    16 Broy./Diag. 0.10E+00    2.0     0.00000235       -47.1677831541  2.30E-05
    17 Broy./Diag. 0.10E+00    2.1     0.00000228       -47.1678283526 -4.52E-05
    18 Broy./Diag. 0.10E+00    3.0     0.00000200       -47.1678726084 -4.43E-05
    19 Broy./Diag. 0.10E+00    2.0     0.00000185       -47.1678913282 -1.87E-05
    20 Broy./Diag. 0.10E+00    2.0     0.00000197       -47.1678862330  5.10E-06
    21 Broy./Diag. 0.10E+00    1.9     0.00000278       -47.1678653462  2.09E-05
    22 Broy./Diag. 0.10E+00    2.0     0.00000352       -47.1678399229  2.54E-05
    23 Broy./Diag. 0.10E+00    2.1     0.00000340       -47.1678201474  1.98E-05
    24 Broy./Diag. 0.10E+00    2.9     0.00000085       -47.1678191920  9.55E-07
    25 Broy./Diag. 0.10E+00    2.0     0.00000038       -47.1678287971 -9.61E-06
    26 Broy./Diag. 0.10E+00    2.0     0.00000036       -47.1678233918  5.41E-06
    27 Broy./Diag. 0.10E+00    2.0     0.00000075       -47.1678109336  1.25E-05
    28 Broy./Diag. 0.10E+00    2.0     0.00000076       -47.1678064549  4.48E-06
    29 Broy./Diag. 0.10E+00    2.6     0.00000059       -47.1678067171 -2.62E-07
    30 Broy./Diag. 0.10E+00    2.4     0.00000027       -47.1678096796 -2.96E-06

  *** SCF run converged in    30 steps ***


  Electronic density on regular grids:         -9.0004222242       -0.0004222242
  Core density on regular grids:                9.0000000000       -0.0000000000
  Total charge density on r-space grids:       -0.0004222242
  Total charge density g-space grids:          -0.0004222242

  Overlap energy of the core charge distribution:               0.00000000000000
  Self energy of the core charge distribution:                -96.60649019442629
  Core Hamiltonian energy:                                     29.76253780380629
  Hartree energy:                                              26.72186042667467
  Exchange-correlation energy:                                 -7.04439207750067
  Dispersion energy:                                           -0.00000859667287
  Electronic entropic energy:                                  -0.00131704147593
  Fermi energy:                                                -0.09146919202312

  Total energy:                                               -47.16780967959478

  outer SCF iter =    1 RMS gradient =   0.27E-06 energy =        -47.1678096796
  outer SCF loop converged in   1 iterations or   30 steps


 *** WARNING in qs_loc_utils.F:1500 :: User requested the calculation of ***
 *** the localized wavefunction but the section LOCALIZE was not         ***
 *** specified. Localization will not be performed!                      ***


 -------------------------------------------------------------------------------
 -                                                                             -
 -  BSSE CALCULATION         FRAGMENT CONF: 11        FRAGMENT SUBCONF: 10     -
 -                           CHARGE =     0           MULTIPLICITY =     0     -
 -                                                                             -
 -                 ATOM INDEX                              ATOM NAME           -
 -                 ----------                              ---------           -
 -                      1                                   C                  -
 -                      2                                   C                  -
 -                      3                                   C                  -
 -                      4                                   C                  -
 -                      5                                   C                  -
 -                      6                                   C                  -
 -                      7                                   C                  -
 -                      8                                   C                  -
 -                      9                                   C                  -
 -                     10                                   C                  -
 -                     11                                   C                  -
 -                     12                                   C                  -
 -                     13                                   C                  -
 -                     14                                   C                  -
 -                     15                                   C                  -
 -                     16                                   C                  -
 -                     17                                   C                  -
 -                     18                                   C                  -
 -                     19                                   C                  -
 -                     20                                   C                  -
 -                     21                                   C                  -
 -                     22                                   C                  -
 -                     23                                   C                  -
 -                     24                                   C                  -
 -                     25                                   C                  -
 -                     26                                   C                  -
 -                     27                                   C                  -
 -                     28                                   C                  -
 -                     29                                   C                  -
 -                     30                                   C                  -
 -                     31                                   C                  -
 -                     32                                   C                  -
 -                     33                                   C                  -
 -                     34                                   C                  -
 -                     35                                   C                  -
 -                     36                                   C                  -
 -                     37                                   C                  -
 -                     38                                   C                  -
 -                     39                                   C                  -
 -                     40                                   C                  -
 -                     41                                   C                  -
 -                     42                                   C                  -
 -                     43                                   C                  -
 -                     44                                   C                  -
 -                     45                                   C                  -
 -                     46                                   C                  -
 -                     47                                   C                  -
 -                     48                                   C                  -
 -                     49                                   C                  -
 -                     50                                   C                  -
 -                     51                                   C                  -
 -                     52                                   C                  -
 -                     53                                   C                  -
 -                     54                                   C                  -
 -                     55                                   C                  -
 -                     56                                   C                  -
 -                     57                                   C                  -
 -                     58                                   C                  -
 -                     59                                   C                  -
 -                     60                                   C                  -
 -                     61                                   C                  -
 -                     62                                   C                  -
 -                     63                                   C                  -
 -                     64                                   C                  -
 -                     65                                   C                  -
 -                     66                                   C                  -
 -                     67                                   C                  -
 -                     68                                   C                  -
 -                     69                                   C                  -
 -                     70                                   C                  -
 -                     71                                   C                  -
 -                     72                                   C                  -
 -                     73                                   C                  -
 -                     74                                   C                  -
 -                     75                                   C                  -
 -                     76                                   C                  -
 -                     77                                   C                  -
 -                     78                                   C                  -
 -                     79                                   C                  -
 -                     80                                   C                  -
 -                     81                                   C                  -
 -                     82                                   C                  -
 -                     83                                   C                  -
 -                     84                                   C                  -
 -                     85                                   C                  -
 -                     86                                   C                  -
 -                     87                                   C                  -
 -                     88                                   C                  -
 -                     89                                   C                  -
 -                     90                                   C                  -
 -                     91                                   C                  -
 -                     92                                   C                  -
 -                     93                                   C                  -
 -                     94                                   C                  -
 -                     95                                   C                  -
 -                     96                                   C                  -
 -                     97                                   C                  -
 -                     98                                   C                  -
 -                     99                                   C                  -
 -                    100                                   C                  -
 -                    101                                   C                  -
 -                    102                                   C                  -
 -                    103                                   C                  -
 -                    104                                   C                  -
 -                    105                                   C                  -
 -                    106                                   C                  -
 -                    107                                   C                  -
 -                    108                                   C                  -
 -                    109                                   C                  -
 -                    110                                   C                  -
 -                    111                                   C                  -
 -                    112                                   C                  -
 -                    113                                   C                  -
 -                    114                                   C                  -
 -                    115                                   C                  -
 -                    116                                   C                  -
 -                    117                                   C                  -
 -                    118                                   C                  -
 -                    119                                   C                  -
 -                    120                                   C                  -
 -                    121                                   C                  -
 -                    122                                   C                  -
 -                    123                                   C                  -
 -                    124                                   C                  -
 -                    125                                   C                  -
 -                    126                                   C                  -
 -                    127                                   C                  -
 -                    128                                   C                  -
 -                    129                                   C                  -
 -                    130                                   C                  -
 -                    131                                   C                  -
 -                    132                                   C                  -
 -                    133                                   C                  -
 -                    134                                   C                  -
 -                    135                                   C                  -
 -                    136                                   C                  -
 -                    137                                   C                  -
 -                    138                                   C                  -
 -                    139                                   C                  -
 -                    140                                   C                  -
 -                    141                                   C                  -
 -                    142                                   C                  -
 -                    143                                   C                  -
 -                    144                                   C                  -
 -                    145                                   C                  -
 -                    146                                   C                  -
 -                    147                                   C                  -
 -                    148                                   C                  -
 -                    149                                   C                  -
 -                    150                                   C                  -
 -                    151                                   C                  -
 -                    152                                   C                  -
 -                    153                                   C                  -
 -                    154                                   C                  -
 -                    155                                   C                  -
 -                    156                                   C                  -
 -                    157                                   C                  -
 -                    158                                   C                  -
 -                    159                                   C                  -
 -                    160                                   C                  -
 -                    161                                   C                  -
 -                    162                                   C                  -
 -                    163                                   C                  -
 -                    164                                   C                  -
 -                    165                                   C                  -
 -                    166                                   C                  -
 -                    167                                   C                  -
 -                    168                                   C                  -
 -                    169                                   C                  -
 -                    170                                   C                  -
 -                    171                                   C                  -
 -                    172                                   C                  -
 -                    173                                   C                  -
 -                    174                                   C                  -
 -                    175                                   C                  -
 -                    176                                   C                  -
 -                    177                                   C                  -
 -                    178                                   C                  -
 -                    179                                   C                  -
 -                    180                                   C                  -
 -                    181                                   C                  -
 -                    182                                   C                  -
 -                    183                                   C                  -
 -                    184                                   C                  -
 -                    185                                   C                  -
 -                    186                                   C                  -
 -                    187                                   C                  -
 -                    188                                   C                  -
 -                    189                                   C                  -
 -                    190                                   C                  -
 -                    191                                   C                  -
 -                    192                                   C                  -
 -                    193                                   Na_ghost           -
 -------------------------------------------------------------------------------

 *******************************************************************************
 *******************************************************************************
 **                                                                           **
 **     #####                         ##              ##                      **
 **    ##   ##            ##          ##              ##                      **
 **   ##     ##                       ##            ######                    **
 **   ##     ##  ##   ##  ##   #####  ##  ##   ####   ##    #####    #####    **
 **   ##     ##  ##   ##  ##  ##      ## ##   ##      ##   ##   ##  ##   ##   **
 **   ##  ## ##  ##   ##  ##  ##      ####     ###    ##   ######   ######    **
 **    ##  ###   ##   ##  ##  ##      ## ##      ##   ##   ##       ##        **
 **     #######   #####   ##   #####  ##  ##  ####    ##    #####   ##        **
 **           ##                                                    ##        **
 **                                                                           **
 **                                                ... make the atoms dance   **
 **                                                                           **
 **            Copyright (C) by CP2K developers group (2000-2022)             **
 **                      J. Chem. Phys. 152, 194103 (2020)                    **
 **                                                                           **
 *******************************************************************************


 TOTAL NUMBERS AND MAXIMUM NUMBERS

  Total number of            - Atomic kinds:                                   2
                             - Atoms:                                        193
                             - Shell sets:                                   193
                             - Shells:                                       965
                             - Primitive Cartesian functions:                967
                             - Cartesian basis functions:                   2697
                             - Spherical basis functions:                   2505

  Maximum angular momentum of- Orbital basis functions:                        2
                             - Local part of the GTH pseudopotential:          2
                             - Non-local part of the GTH pseudopotential:      0


 SCF PARAMETERS         Density guess:                                    ATOMIC
                        --------------------------------------------------------
                        max_scf:                                             300
                        max_scf_history:                                       0
                        max_diis:                                              4
                        --------------------------------------------------------
                        eps_scf:                                        3.00E-07
                        eps_scf_history:                                0.00E+00
                        eps_diis:                                       1.00E-01
                        eps_eigval:                                     1.00E-05
                        --------------------------------------------------------
                        level_shift [a.u.]:                             0.000000
                        added MOs                                       100    0
                        --------------------------------------------------------
                        Mixing method:                            BROYDEN_MIXING
                                                charge density mixing in g-space
                        --------------------------------------------------------
                        Smear method:                                FERMI_DIRAC
                        Electronic temperature [K]:                        300.0
                        Electronic temperature [a.u.]:                  9.50E-04
                        Accuracy threshold:                             1.00E-10
                        --------------------------------------------------------
                        Outer loop SCF in use 
                        No variables optimised in outer loop
                        eps_scf                                         1.00E-06
                        max_scf                                              300
                        DIIS optimization
                        DIIS buffer length                                     3
                        step_size                                       5.00E-01

 Number of electrons:                                                        768
 Number of occupied orbitals:                                                384
 Number of molecular orbitals:                                               484

 Number of orbital functions:                                               2505
 Number of independent orbital functions:                                   2505

 Extrapolation method: initial_guess


 SCF WAVEFUNCTION OPTIMIZATION

  Step     Update method      Time    Convergence         Total energy    Change
  ------------------------------------------------------------------------------
     1 NoMix/Diag. 0.10E+00    5.8     0.92597651     -1085.8271092172 -1.09E+03
     2 Broy./Diag. 0.10E+00    7.4     0.00227749     -1044.5858027527  4.12E+01
     3 Broy./Diag. 0.10E+00    7.7     0.02535489     -1076.6296166138 -3.20E+01
     4 Broy./Diag. 0.10E+00    7.7     0.00039225     -1090.2545740162 -1.36E+01
     5 Broy./Diag. 0.10E+00    7.9     0.00287230     -1090.8536870658 -5.99E-01
     6 Broy./Diag. 0.10E+00    7.9     0.00010127     -1092.0303508911 -1.18E+00
     7 Broy./Diag. 0.10E+00    8.0     0.00075002     -1092.5500659963 -5.20E-01
     8 Broy./Diag. 0.10E+00    8.0     0.00005119     -1092.9128779256 -3.63E-01
     9 Broy./Diag. 0.10E+00    8.1     0.00066898     -1093.0886342014 -1.76E-01
    10 Broy./Diag. 0.10E+00    8.2     0.00005546     -1093.3073433641 -2.19E-01
    11 Broy./Diag. 0.10E+00    8.2     0.00050980     -1093.2714314781  3.59E-02
    12 Broy./Diag. 0.10E+00    8.3     0.00004043     -1093.3507993731 -7.94E-02
    13 Broy./Diag. 0.10E+00    8.2     0.00045652     -1093.3920618779 -4.13E-02
    14 Broy./Diag. 0.10E+00    8.2     0.00012858     -1093.4373940166 -4.53E-02
    15 Broy./Diag. 0.10E+00    8.2     0.00027385     -1093.4661235155 -2.87E-02
    16 Broy./Diag. 0.10E+00    8.2     0.00015119     -1093.4840699342 -1.79E-02
    17 Broy./Diag. 0.10E+00    8.2     0.00006429     -1093.4750807310  8.99E-03
    18 Broy./Diag. 0.10E+00    8.2     0.00004763     -1093.4631824577  1.19E-02
    19 Broy./Diag. 0.10E+00    8.2     0.00004754     -1093.4616444656  1.54E-03
    20 Broy./Diag. 0.10E+00    8.2     0.00007476     -1093.4666671472 -5.02E-03
    21 Broy./Diag. 0.10E+00    8.2     0.00001371     -1093.4733729459 -6.71E-03
    22 Broy./Diag. 0.10E+00    8.2     0.00004797     -1093.4789461994 -5.57E-03
    23 Broy./Diag. 0.10E+00    8.2     0.00000450     -1093.4821517377 -3.21E-03
    24 Broy./Diag. 0.10E+00    8.2     0.00002459     -1093.4817148370  4.37E-04
    25 Broy./Diag. 0.10E+00    8.2     0.00000348     -1093.4816572333  5.76E-05
    26 Broy./Diag. 0.10E+00    8.2     0.00001586     -1093.4810248547  6.32E-04
    27 Broy./Diag. 0.10E+00    8.2     0.00000212     -1093.4810045360  2.03E-05
    28 Broy./Diag. 0.10E+00    8.2     0.00001019     -1093.4809009325  1.04E-04
    29 Broy./Diag. 0.10E+00    8.2     0.00000083     -1093.4810105237 -1.10E-04
    30 Broy./Diag. 0.10E+00    8.2     0.00000523     -1093.4812877553 -2.77E-04
    31 Broy./Diag. 0.10E+00    7.6     0.00000066     -1093.4813540450 -6.63E-05
    32 Broy./Diag. 0.10E+00    8.3     0.00000324     -1093.4814148210 -6.08E-05
    33 Broy./Diag. 0.10E+00    8.1     0.00000028     -1093.4814397075 -2.49E-05

  *** SCF run converged in    33 steps ***


  Electronic density on regular grids:       -767.9999999978        0.0000000022
  Core density on regular grids:              767.9999999993       -0.0000000007
  Total charge density on r-space grids:        0.0000000016
  Total charge density g-space grids:           0.0000000016

  Overlap energy of the core charge distribution:               0.00002984047008
  Self energy of the core charge distribution:              -2560.32152193892080
  Core Hamiltonian energy:                                    800.77344416170297
  Hartree energy:                                            1001.45357870207943
  Exchange-correlation energy:                               -335.14333849711727
  Dispersion energy:                                           -0.24363181708551
  Electronic entropic energy:                                  -0.00000015863852
  Fermi energy:                                                -0.11874083556074

  Total energy:                                             -1093.48143970750925

  outer SCF iter =    1 RMS gradient =   0.28E-06 energy =      -1093.4814397075
  outer SCF loop converged in   1 iterations or   33 steps


 *** WARNING in qs_loc_utils.F:1500 :: User requested the calculation of ***
 *** the localized wavefunction but the section LOCALIZE was not         ***
 *** specified. Localization will not be performed!                      ***


 -------------------------------------------------------------------------------
 -                                                                             -
 -  BSSE CALCULATION         FRAGMENT CONF: 11        FRAGMENT SUBCONF: 01     -
 -                           CHARGE =     0           MULTIPLICITY =     0     -
 -                                                                             -
 -                 ATOM INDEX                              ATOM NAME           -
 -                 ----------                              ---------           -
 -                      1                                   C_ghost            -
 -                      2                                   C_ghost            -
 -                      3                                   C_ghost            -
 -                      4                                   C_ghost            -
 -                      5                                   C_ghost            -
 -                      6                                   C_ghost            -
 -                      7                                   C_ghost            -
 -                      8                                   C_ghost            -
 -                      9                                   C_ghost            -
 -                     10                                   C_ghost            -
 -                     11                                   C_ghost            -
 -                     12                                   C_ghost            -
 -                     13                                   C_ghost            -
 -                     14                                   C_ghost            -
 -                     15                                   C_ghost            -
 -                     16                                   C_ghost            -
 -                     17                                   C_ghost            -
 -                     18                                   C_ghost            -
 -                     19                                   C_ghost            -
 -                     20                                   C_ghost            -
 -                     21                                   C_ghost            -
 -                     22                                   C_ghost            -
 -                     23                                   C_ghost            -
 -                     24                                   C_ghost            -
 -                     25                                   C_ghost            -
 -                     26                                   C_ghost            -
 -                     27                                   C_ghost            -
 -                     28                                   C_ghost            -
 -                     29                                   C_ghost            -
 -                     30                                   C_ghost            -
 -                     31                                   C_ghost            -
 -                     32                                   C_ghost            -
 -                     33                                   C_ghost            -
 -                     34                                   C_ghost            -
 -                     35                                   C_ghost            -
 -                     36                                   C_ghost            -
 -                     37                                   C_ghost            -
 -                     38                                   C_ghost            -
 -                     39                                   C_ghost            -
 -                     40                                   C_ghost            -
 -                     41                                   C_ghost            -
 -                     42                                   C_ghost            -
 -                     43                                   C_ghost            -
 -                     44                                   C_ghost            -
 -                     45                                   C_ghost            -
 -                     46                                   C_ghost            -
 -                     47                                   C_ghost            -
 -                     48                                   C_ghost            -
 -                     49                                   C_ghost            -
 -                     50                                   C_ghost            -
 -                     51                                   C_ghost            -
 -                     52                                   C_ghost            -
 -                     53                                   C_ghost            -
 -                     54                                   C_ghost            -
 -                     55                                   C_ghost            -
 -                     56                                   C_ghost            -
 -                     57                                   C_ghost            -
 -                     58                                   C_ghost            -
 -                     59                                   C_ghost            -
 -                     60                                   C_ghost            -
 -                     61                                   C_ghost            -
 -                     62                                   C_ghost            -
 -                     63                                   C_ghost            -
 -                     64                                   C_ghost            -
 -                     65                                   C_ghost            -
 -                     66                                   C_ghost            -
 -                     67                                   C_ghost            -
 -                     68                                   C_ghost            -
 -                     69                                   C_ghost            -
 -                     70                                   C_ghost            -
 -                     71                                   C_ghost            -
 -                     72                                   C_ghost            -
 -                     73                                   C_ghost            -
 -                     74                                   C_ghost            -
 -                     75                                   C_ghost            -
 -                     76                                   C_ghost            -
 -                     77                                   C_ghost            -
 -                     78                                   C_ghost            -
 -                     79                                   C_ghost            -
 -                     80                                   C_ghost            -
 -                     81                                   C_ghost            -
 -                     82                                   C_ghost            -
 -                     83                                   C_ghost            -
 -                     84                                   C_ghost            -
 -                     85                                   C_ghost            -
 -                     86                                   C_ghost            -
 -                     87                                   C_ghost            -
 -                     88                                   C_ghost            -
 -                     89                                   C_ghost            -
 -                     90                                   C_ghost            -
 -                     91                                   C_ghost            -
 -                     92                                   C_ghost            -
 -                     93                                   C_ghost            -
 -                     94                                   C_ghost            -
 -                     95                                   C_ghost            -
[...]
    30 Broy./Diag. 0.10E+00    8.2     0.00008756     -1140.6947797776 -2.09E-04
    31 Broy./Diag. 0.10E+00    6.7     0.00000486     -1140.6943671922  4.13E-04
    32 Broy./Diag. 0.10E+00    4.7     0.00001975     -1140.6932930109  1.07E-03
    33 Broy./Diag. 0.10E+00    4.7     0.00000551     -1140.6930594514  2.34E-04
    34 Broy./Diag. 0.10E+00    4.7     0.00001439     -1140.6929795867  7.99E-05
    35 Broy./Diag. 0.10E+00    4.7     0.00000828     -1140.6934237129 -4.44E-04
    36 Broy./Diag. 0.10E+00    4.7     0.00000665     -1140.6937345710 -3.11E-04
    37 Broy./Diag. 0.10E+00    4.7     0.00000774     -1140.6943304920 -5.96E-04
    38 Broy./Diag. 0.10E+00    4.7     0.00000086     -1140.6946572777 -3.27E-04
    39 Broy./Diag. 0.10E+00    4.7     0.00000314     -1140.6945100072  1.47E-04
    40 Broy./Diag. 0.10E+00    4.7     0.00000041     -1140.6945601866 -5.02E-05
    41 Broy./Diag. 0.10E+00    4.7     0.00000313     -1140.6945849138 -2.47E-05
    42 Broy./Diag. 0.10E+00    4.7     0.00000017     -1140.6946353812 -5.05E-05

  *** SCF run converged in    42 steps ***


  Electronic density on regular grids:       -777.0004244963       -0.0004244963
  Core density on regular grids:              776.9999999993       -0.0000000007
  Total charge density on r-space grids:       -0.0004244970
  Total charge density g-space grids:          -0.0004244970

  Overlap energy of the core charge distribution:               0.00002984047008
  Self energy of the core charge distribution:              -2656.92801213334678
  Core Hamiltonian energy:                                    830.97630137688691
  Hartree energy:                                            1027.96066495622495
  Exchange-correlation energy:                               -342.45327573649377
  Dispersion energy:                                           -0.24820504543249
  Electronic entropic energy:                                  -0.00213863955287
  Fermi energy:                                                -0.10188706026980

  Total energy:                                             -1140.69463538123432

  outer SCF iter =    1 RMS gradient =   0.17E-06 energy =      -1140.6946353812
  outer SCF loop converged in   1 iterations or   42 steps


 *** WARNING in qs_loc_utils.F:1500 :: User requested the calculation of ***
 *** the localized wavefunction but the section LOCALIZE was not         ***
 *** specified. Localization will not be performed!                      ***


 -------------------------------------------------------------------------------
 -                                                                             -
 -                                 BSSE RESULTS                                -
 -                                                                             -
 -                 CP-corrected Total energy:    -1140.692466                  -
 -                                                                             -
 -                       1-body contribution:    -1093.479951                  -
 -                       1-body contribution:      -47.167810                  -
 -                                                                             -
 -                       2-body contribution:       -0.044705                  -
 -                 BSSE-free interaction energy:       -0.044705               -
 -------------------------------------------------------------------------------

 -------------------------------------------------------------------------------
 -                                                                             -
 -                                DBCSR STATISTICS                             -
 -                                                                             -
 -------------------------------------------------------------------------------
 COUNTER                                    TOTAL       BLAS       SMM       ACC
 flops     9 x     9 x     9               109350     100.0%      0.0%      0.0%
 flops     9 x     9 x   100               534600     100.0%      0.0%      0.0%
 flops     9 x     9 x    32               699840     100.0%      0.0%      0.0%
 flops     9 x     9 x   105               714420     100.0%      0.0%      0.0%
 flops     9 x     9 x   128              4665600     100.0%      0.0%      0.0%
 flops    13 x     9 x     9              7012980     100.0%      0.0%      0.0%
 flops     9 x    13 x     9              7202520     100.0%      0.0%      0.0%
 flops    13 x     9 x   100             57142800     100.0%      0.0%      0.0%
 flops     9 x    13 x   100             58687200     100.0%      0.0%      0.0%
 flops    13 x     9 x    32             74805120     100.0%      0.0%      0.0%
 flops    13 x     9 x   105             76363560     100.0%      0.0%      0.0%
 flops     9 x    13 x    32             76826880     100.0%      0.0%      0.0%
 flops     9 x    13 x   105             78427440     100.0%      0.0%      0.0%
 flops    13 x     9 x   128            498700800     100.0%      0.0%      0.0%
 flops     9 x    13 x   128            512179200     100.0%      0.0%      0.0%
 flops    13 x    13 x     9           1489910760     100.0%      0.0%      0.0%
 flops    13 x    13 x    32          15892381440     100.0%      0.0%      0.0%
 flops    13 x    13 x   105          16223472720     100.0%      0.0%      0.0%
 flops    13 x    13 x   100          24280027200     100.0%      0.0%      0.0%
 flops    13 x    13 x   128         152566861824     100.0%      0.0%      0.0%
 flops inhomo. stacks                           0       0.0%      0.0%      0.0%
 flops total                       211.906726E+09     100.0%      0.0%      0.0%
 flops max/rank                     13.831218E+09     100.0%      0.0%      0.0%
 matmuls inhomo. stacks                         0       0.0%      0.0%      0.0%
 matmuls total                            6733518     100.0%      0.0%      0.0%
 number of processed stacks                 13662     100.0%      0.0%      0.0%
 average stack size                                   492.9       0.0       0.0
 marketing flops                   529.752490E+09
 -------------------------------------------------------------------------------
 # multiplications                            183
 max memory usage/rank             985.272320E+06
 # max total images/rank                        1
 # max 3D layers                                1
 # MPI messages exchanged                   17568
 MPI messages size (bytes):
  total size                         6.871784E+09
  min size                           0.000000E+00
  max size                         648.192000E+03
  average size                     391.153500E+03
 MPI breakdown and total messages size (bytes):
             size <=      128                2700                        0
       128 < size <=     8192                 180                   116640
      8192 < size <=    32768                   0                        0
     32768 < size <=   131072                1080                 48697200
    131072 < size <=  4194304               13608               6822972576
   4194304 < size <= 16777216                   0                        0
  16777216 < size                               0                        0
 -------------------------------------------------------------------------------
 -                                                                             -
 -                      DBCSR MESSAGE PASSING PERFORMANCE                      -
 -                                                                             -
 -------------------------------------------------------------------------------
 ROUTINE             CALLS      AVE VOLUME [Bytes]
 MP_Bcast               21                     12.
 MP_Allreduce         1345                      9.
 MP_Alltoall          5184                 431191.
 MP_ISend             2928                 158651.
 MP_IRecv             2928                 145370.
 -------------------------------------------------------------------------------

 -------------------------------------------------------------------------------
 -                                                                             -
 -                                DBM STATISTICS                               -
 -                                                                             -
 -------------------------------------------------------------------------------
    M  x    N  x    K                                          COUNT     PERCENT
 -------------------------------------------------------------------------------

 -------------------------------------------------------------------------------
 -                                                                             -
 -                                GRID STATISTICS                              -
 -                                                                             -
 -------------------------------------------------------------------------------
 LP    KERNEL             BACKEND                              COUNT     PERCENT
 4     collocate ortho    REF                               17749949      50.05%
 4     integrate ortho    REF                               17297721      48.77%
 3     collocate ortho    REF                                 199506       0.56%
 3     integrate ortho    REF                                 194640       0.55%
 0     collocate general  REF                                   9264       0.03%
 2     collocate ortho    REF                                   7854       0.02%
 2     integrate ortho    REF                                   7650       0.02%
 -------------------------------------------------------------------------------

 MEMORY| Estimated peak process memory [MiB]                                 940

 -------------------------------------------------------------------------------
 -                                                                             -
 -                         MESSAGE PASSING PERFORMANCE                         -
 -                                                                             -
 -------------------------------------------------------------------------------

 ROUTINE             CALLS      AVE VOLUME [Bytes]
 MP_Group               24
 MP_Bcast              519                1861525.
 MP_Allreduce         2702                   1787.
 MP_Sync               237
 MP_Alltoall          2479               27086804.
 MP_SendRecv          7836                 231821.
 MP_ISendRecv         5490                 187520.
 MP_Wait             13707
 MP_comm_split          30
 MP_ISend             5976                1534523.
 MP_IRecv             5976                1534286.
 MP_Recv               118                 611321.
 -------------------------------------------------------------------------------


 -------------------------------------------------------------------------------
 -                                                                             -
 -                           R E F E R E N C E S                               -
 -                                                                             -
 -------------------------------------------------------------------------------
 
 CP2K version 2023.1, the CP2K developers group (2023).
 CP2K is freely available from https://www.cp2k.org/ .

 Kuehne,Thomas D.; Iannuzzi,Marcella; Del Ben,Mauro;
 Rybkin,Vladimir V.; Seewald,Patrick; Stein,Frederick; Laino,Teodoro;
 Khaliullin,Rustam Z.; Schuett,Ole; Schiffmann,Florian; Golze,Dorothea;
 Wilhelm,Jan; Chulkov,Sergey; Bani-Hashemian,Mohammad Hossein;
 Weber,Valery; Borstnik,Urban; Taillefumier,Mathieu;
 Jakobovits,Alice Shoshana; Lazzaro,Alfio; Pabst,Hans; Mueller,Tiziano;
 Schade,Robert; Guidon,Manuel; Andermatt,Samuel; Holmberg,Nico;
 Schenter,Gregory K.; Hehn,Anna; Bussy,Augustin; Belleflamme,Fabian;
 Tabacchi,Gloria; Gloess,Andreas; Lass,Michael; Bethune,Iain;
 Mundy,Christopher J.; Plessl,Christian; Watkins,Matt;
 VandeVondele,Joost; Krack,Matthias; Hutter,Juerg. 
 The Journal of Chemical Physics, 152 (19), (2020). 
 CP2K: An electronic structure and molecular dynamics software package -
 Quickstep: Efficient and accurate electronic structure calculations.
 https://doi.org/10.1063/5.0007045

 Goerigk, Lars; Hansen, Andreas; Bauer, Christoph; Ehrlich, Stephan;
 Najibi, Asim; Grimme, Stefan. , 19 (48), (2017). 
 A look at the density functional theory zoo with the advanced GMTKN55 database
 for general main group thermochemistry, kinetics and noncovalent interactions.
 https://doi.org/10.1039/C7CP04913G

 Schuett, Ole; Messmer, Peter; Hutter, Juerg; VandeVondele, Joost. 
 Electronic Structure Calculations on Graphics Processing Units, John
 Wiley & Sons, Ltd, 173-190 (2016). 
 GPU-Accelerated Sparse Matrix-Matrix Multiplication for
 Linear Scaling Density Functional Theory.
 https://doi.org/10.1002/9781118670712.ch8

 Borstnik, U; VandeVondele, J; Weber, V; Hutter, J. 
 PARALLEL COMPUTING, 40 (5-6), 47-58 (2014). 
 Sparse matrix multiplication: The distributed block-compressed sparse
 row library.
 https://doi.org/10.1016/j.parco.2014.03.012

 Hutter, J; Iannuzzi, M; Schiffmann, F; VandeVondele, J. 
 WIREs Comput Mol Sci., 4 (1), 15-25 (2014). 
 CP2K: atomistic simulations of condensed matter systems.
 https://doi.org/10.1002/wcms.1159

 Marek, A; Blum, V; Johanni, R; Havu, V; Lang, B; Auckenthaler, T;
 Heinecke, A; Bungartz, H; Lederer, H. 
 Journal of Physics: Condensed Matter, 26 (21), (2014). 
 The ELPA library: scalable parallel eigenvalue solutions for
 electronic structure
 theory and computational science.
 https://doi.org/10.1088/0953-8984/26/21/213201

 Grimme, S; Ehrlich, S; Goerigk, L. 
 JOURNAL OF COMPUTATIONAL CHEMISTRY, 32, 1456 (2011). 
 Effect of the damping function in dispersion corrected density functional theory.
 https://doi.org/10.1002/jcc.21759

 Grimme, S; Antony, J; Ehrlich, S; Krieg, H. 
 JOURNAL OF CHEMICAL PHYSICS, 132 (15), 154104 (2010). 
 A consistent and accurate ab initio parametrization of density
 functional dispersion correction (DFT-D) for the 94 elements H-Pu.
 https://doi.org/10.1063/1.3382344

 VandeVondele, J; Hutter, J. 
 JOURNAL OF CHEMICAL PHYSICS, 127 (11), 114105 (2007). 
 Gaussian basis sets for accurate calculations on molecular systems in
 gas and condensed phases.
 https://doi.org/10.1063/1.2770708

 Krack, M. 
 THEORETICAL CHEMISTRY ACCOUNTS, 114 (1-3), 145-152 (2005). 
 Pseudopotentials for H to Kr optimized for gradient-corrected
 exchange-correlation functionals.
 https://doi.org/10.1007/s00214-005-0655-y

 VandeVondele, J; Krack, M; Mohamed, F; Parrinello, M; Chassaing, T;
 Hutter, J. COMPUTER PHYSICS COMMUNICATIONS, 167 (2), 103-128 (2005). 
 QUICKSTEP: Fast and accurate density functional calculations using a
 mixed Gaussian and plane waves approach.
 https://doi.org/10.1016/j.cpc.2004.12.014

 Frigo, M; Johnson, SG. 
 PROCEEDINGS OF THE IEEE, 93 (2), 216-231 (2005). 
 The design and implementation of FFTW3.
 https://doi.org/10.1109/JPROC.2004.840301

 Hartwigsen, C; Goedecker, S; Hutter, J. 
 PHYSICAL REVIEW B, 58 (7), 3641-3662 (1998). 
 Relativistic separable dual-space Gaussian pseudopotentials from H to Rn.
 https://doi.org/10.1103/PhysRevB.58.3641

 Lippert, G; Hutter, J; Parrinello, M. 
 MOLECULAR PHYSICS, 92 (3), 477-487 (1997). 
 A hybrid Gaussian and plane wave density functional scheme.
 https://doi.org/10.1080/002689797170220

 Perdew, JP; Burke, K; Ernzerhof, M. 
 PHYSICAL REVIEW LETTERS, 77 (18), 3865-3868 (1996). 
 Generalized gradient approximation made simple.
 https://doi.org/10.1103/PhysRevLett.77.3865

 Goedecker, S; Teter, M; Hutter, J. 
 PHYSICAL REVIEW B, 54 (3), 1703-1710 (1996). 
 Separable dual-space Gaussian pseudopotentials.
 https://doi.org/10.1103/PhysRevB.54.1703


 -------------------------------------------------------------------------------
 -                                                                             -
 -                                T I M I N G                                  -
 -                                                                             -
 -------------------------------------------------------------------------------
 SUBROUTINE                       CALLS  ASD         SELF TIME        TOTAL TIME
                                MAXIMUM       AVERAGE  MAXIMUM  AVERAGE  MAXIMUM
 CP2K                                 1  1.0    1.368    1.418 2811.436 2811.446
 qs_energies                          5  2.0    0.001    0.001 2795.824 2796.104
 scf_env_do_scf                       5  3.0    0.001    0.002 2767.822 2768.095
 scf_env_do_scf_inner_loop          183  4.0    0.010    0.025 2767.821 2768.093
 qs_scf_new_mos                     183  5.0    0.005    0.005 2026.477 2026.758
 eigensolver                        183  6.0    0.029    0.037 1996.539 1996.750
 cp_fm_diag_elpa                    153  7.0    0.003    0.003 1699.849 1700.348
 cp_fm_diag_elpa_base               153  8.0 1696.782 1697.639 1699.105 1699.152
 qs_ks_update_qs_env                183  5.0    0.003    0.003  366.293  366.465
 rebuild_ks_matrix                  183  6.0    0.001    0.001  365.360  365.540
 qs_ks_build_kohn_sham_matrix       183  7.0    0.044    0.048  365.359  365.539
 cp_fm_triangular_multiply          549  7.0  295.201  296.149  295.201  296.149
 qs_rho_update_rho_low              188  5.0    0.002    0.002  267.782  267.903
 calculate_rho_elec                 188  6.0    0.739    0.760  267.780  267.901
 sum_up_and_integrate               183  8.0    2.361    2.517  248.154  248.284
 integrate_v_rspace                 183  9.0    0.014    0.032  245.792  245.879
 density_rs2pw                      188  7.0    0.019    0.033  166.255  225.329
 pw_transfer                       2404  8.9    0.378    0.405  175.439  181.071
 fft_wrap_pw1pw2                   2038  9.9    0.042    0.045  170.989  176.681
 grid_integrate_task_list           183 10.0   97.385  176.074   97.385  176.074
 rs_pw_transfer                    1489  9.5    0.047    0.053  117.405  175.445
 grid_collocate_task_list           188  7.0   97.477  170.826   97.477  170.826
 fft_wrap_pw1pw2_150                925 10.2   11.632   12.085  154.247  161.725
 mp_alltoall_d11v                  2597  9.3   84.322  143.985   84.322  143.985
 mp_waitany                        5976 11.5   80.924  139.869   80.924  139.869
 rs_gather_matrices                 183 10.0    0.247    0.274   79.741  139.423
 rs_pw_transfer_RS2PW_150           193  8.9    4.202    4.985   79.317  137.617
 fft3d_ps                          2038 11.9   64.898   71.473  120.290  129.537
 gspace_mixing                      178  5.0    0.692    0.722  114.548  114.610
 broyden_mixing                     178  6.0   80.908   82.644   84.650   85.247
 qs_vxc_create                      183  8.0    0.007    0.009   73.316   75.198
 xc_vxc_pw_create                   183  9.0    2.485    2.782   73.309   75.189
 potential_pw2rs                    183 10.0    0.087    0.103   68.652   68.878
 xc_rho_set_and_dset_create         183 10.0    3.154    3.712   54.556   57.370
 -------------------------------------------------------------------------------

 The number of warnings for this run is : 6
 
 -------------------------------------------------------------------------------
  **** **** ******  **  PROGRAM ENDED AT                 2025-06-22 23:20:42.297
 ***** ** ***  *** **   PROGRAM RAN ON                                sebnode129
 **    ****   ******    PROGRAM RAN BY                                    luehrs
 ***** **    ** ** **   PROGRAM PROCESS ID                               1827537
  **** **  *******  **  PROGRAM STOPPED IN /home/luehrs/PhD/Sodium_batteries/Sod
                                           ium-graphene-curvature/Sinus_surface2
                                           /Sinus8
