 DBCSR| CPU Multiplication driver                                           BLAS (U)
 DBCSR| Multrec recursion limit                                              512 (U)
 DBCSR| Multiplication stack size                                           1000 (D)
 DBCSR| Maximum elements for images                                    UNLIMITED (U)
 DBCSR| Multiplicative factor virtual images                                   1 (U)
 DBCSR| Use multiplication densification                                       T (D)
 DBCSR| Multiplication size stacks                                             3 (U)
 DBCSR| Use memory pool for CPU allocation                                     F (U)
 DBCSR| Number of 3D layers                                               SINGLE (U)
 DBCSR| Use MPI memory allocation                                              F (U)
 DBCSR| Use RMA algorithm                                                      F (U)
 DBCSR| Use Communication thread                                               T (U)
 DBCSR| Communication thread load                                             87 (D)
 DBCSR| MPI: My process id                                                     0
 DBCSR| MPI: Number of processes                                              16
 DBCSR| OMP: Current number of threads                                         1
 DBCSR| OMP: Max number of threads                                             1
 DBCSR| Split modifier for TAS multiplication algorithm                  1.0E+00 (U)


  **** **** ******  **  PROGRAM STARTED AT               2025-05-16 14:28:42.566
 ***** ** ***  *** **   PROGRAM STARTED ON                            sebnode130
 **    ****   ******    PROGRAM STARTED BY                                luehrs
 ***** **    ** ** **   PROGRAM PROCESS ID                               1484523
  **** **  *******  **  PROGRAM STARTED IN /home/luehrs/PhD/Sodium_batteries/Sod
                                           ium-graphene-interlayer/AB_Interlayer
                                           /Zig-Zag1_3.76A

 CP2K| version string:                                       CP2K version 2023.1
 CP2K| source code revision number:                                  git:b888bd8
 CP2K| cp2kflags: omp libint fftw3 libxc elpa parallel scalapack spglib         
 CP2K| is freely available from                            https://www.cp2k.org/
 CP2K| Program compiled at                          Tue Jan 10 19:52:03 UTC 2023
 CP2K| Program compiled on                                            x86-ubc-01
 CP2K| Program compiled for                                Linux-x86_64-gfortran
 CP2K| Data directory path                                       /usr/share/cp2k
 CP2K| Input file name                                         input.zig-zag.inp

 GLOBAL| Force Environment number                                              1
 GLOBAL| Basis set file name                                      ./BASIS_MOLOPT
 GLOBAL| Potential file name                                    ./GTH_POTENTIALS
 GLOBAL| MM Potential file name                                     MM_POTENTIAL
 GLOBAL| Coordinate file name                          AB_3.76A_BLYP_relaxed.xyz
 GLOBAL| Method name                                                        CP2K
 GLOBAL| Project name                                        AB_3.76A_1_PBE_BSSE
 GLOBAL| Run type                                                           BSSE
 GLOBAL| FFT library                                                       FFTW3
 GLOBAL| Diagonalization library                                            ELPA
 GLOBAL| DGEMM library                                                      BLAS
 GLOBAL| Minimum number of eigenvectors for ELPA usage                        16
 GLOBAL| Orthonormality check for eigenvectors                          DISABLED
 GLOBAL| Matrix multiplication library                                 ScaLAPACK
 GLOBAL| All-to-all communication in single precision                          F
 GLOBAL| FFTs using library dependent lengths                                  F
 GLOBAL| Grid backend                                                       AUTO
 GLOBAL| Global print level                                                  LOW
 GLOBAL| MPI I/O enabled                                                       T
 GLOBAL| Total number of message passing processes                            16
 GLOBAL| Number of threads for this process                                    1
 GLOBAL| This output is from process                                           0
 GLOBAL| Stack size for threads created by OpenMP (OMP_STACKSIZE)        default
 GLOBAL| CPU model name                          AMD EPYC 7513 32-Core Processor

 MEMORY| system memory details [Kb]
 MEMORY|                        rank 0           min           max       average
 MEMORY| MemTotal            131832644     131832644     131832644     131832644
 MEMORY| MemFree             107964136     107964136     107964136     107964136
 MEMORY| Buffers                471120        471120        471120        471120
 MEMORY| Cached                 369344        369344        369344        369344
 MEMORY| Slab                   792440        792440        792440        792440
 MEMORY| SReclaimable           151124        151124        151124        151124
 MEMORY| MemLikelyFree       108955724     108955724     108955724     108955724


 GENERATE|  Preliminary Number of Bonds generated:                             0
 GENERATE|  Achieved consistency in connectivity generation.

 *******************************************************************************
 *******************************************************************************
 **                                                                           **
 **     #####                         ##              ##                      **
 **    ##   ##            ##          ##              ##                      **
 **   ##     ##                       ##            ######                    **
 **   ##     ##  ##   ##  ##   #####  ##  ##   ####   ##    #####    #####    **
 **   ##     ##  ##   ##  ##  ##      ## ##   ##      ##   ##   ##  ##   ##   **
 **   ##  ## ##  ##   ##  ##  ##      ####     ###    ##   ######   ######    **
 **    ##  ###   ##   ##  ##  ##      ## ##      ##   ##   ##       ##        **
 **     #######   #####   ##   #####  ##  ##  ####    ##    #####   ##        **
 **           ##                                                    ##        **
 **                                                                           **
 **                                                ... make the atoms dance   **
 **                                                                           **
 **            Copyright (C) by CP2K developers group (2000-2022)             **
 **                      J. Chem. Phys. 152, 194103 (2020)                    **
 **                                                                           **
 *******************************************************************************


 TOTAL NUMBERS AND MAXIMUM NUMBERS

  Total number of            - Atomic kinds:                                   2
                             - Atoms:                                        225
                             - Shell sets:                                   225
                             - Shells:                                      1125
                             - Primitive Cartesian functions:               1127
                             - Cartesian basis functions:                   3145
                             - Spherical basis functions:                   2921

  Maximum angular momentum of- Orbital basis functions:                        2
                             - Local part of the GTH pseudopotential:          2
                             - Non-local part of the GTH pseudopotential:      1


 SCF PARAMETERS         Density guess:                                    ATOMIC
                        --------------------------------------------------------
                        max_scf:                                             100
                        max_scf_history:                                       0
                        max_diis:                                              4
                        --------------------------------------------------------
                        eps_scf:                                        3.00E-07
                        eps_scf_history:                                0.00E+00
                        eps_diis:                                       1.00E-01
                        eps_eigval:                                     1.00E-05
                        --------------------------------------------------------
                        level_shift [a.u.]:                             0.000000
                        added MOs                                       100  100
                        --------------------------------------------------------
                        Mixing method:                            BROYDEN_MIXING
                                                charge density mixing in g-space
                        --------------------------------------------------------
                        Smear method:                                FERMI_DIRAC
                        Electronic temperature [K]:                        300.0
                        Electronic temperature [a.u.]:                  9.50E-04
                        Accuracy threshold:                             1.00E-10
                        --------------------------------------------------------
                        Outer loop SCF in use 
                        No variables optimised in outer loop
                        eps_scf                                         1.00E-06
                        max_scf                                               30
                        DIIS optimization
                        DIIS buffer length                                     3
                        step_size                                       5.00E-01

 -------------------------------------------------------------------------------
 -                                                                             -
 -  BSSE CALCULATION         FRAGMENT CONF: 10        FRAGMENT SUBCONF: 10     -
 -                           CHARGE =     0           MULTIPLICITY =     0     -
 -                                                                             -
 -                 ATOM INDEX                              ATOM NAME           -
 -                 ----------                              ---------           -
 -                      1                                   C                  -
 -                      2                                   C                  -
 -                      3                                   C                  -
 -                      4                                   C                  -
 -                      5                                   C                  -
 -                      6                                   C                  -
 -                      7                                   C                  -
 -                      8                                   C                  -
 -                      9                                   C                  -
 -                     10                                   C                  -
 -                     11                                   C                  -
 -                     12                                   C                  -
 -                     13                                   C                  -
 -                     14                                   C                  -
 -                     15                                   C                  -
 -                     16                                   C                  -
 -                     17                                   C                  -
 -                     18                                   C                  -
 -                     19                                   C                  -
 -                     20                                   C                  -
 -                     21                                   C                  -
 -                     22                                   C                  -
 -                     23                                   C                  -
 -                     24                                   C                  -
 -                     25                                   C                  -
 -                     26                                   C                  -
 -                     27                                   C                  -
 -                     28                                   C                  -
 -                     29                                   C                  -
 -                     30                                   C                  -
 -                     31                                   C                  -
 -                     32                                   C                  -
 -                     33                                   C                  -
 -                     34                                   C                  -
 -                     35                                   C                  -
 -                     36                                   C                  -
 -                     37                                   C                  -
 -                     38                                   C                  -
 -                     39                                   C                  -
 -                     40                                   C                  -
 -                     41                                   C                  -
 -                     42                                   C                  -
 -                     43                                   C                  -
 -                     44                                   C                  -
 -                     45                                   C                  -
 -                     46                                   C                  -
 -                     47                                   C                  -
 -                     48                                   C                  -
 -                     49                                   C                  -
 -                     50                                   C                  -
 -                     51                                   C                  -
 -                     52                                   C                  -
 -                     53                                   C                  -
 -                     54                                   C                  -
 -                     55                                   C                  -
 -                     56                                   C                  -
 -                     57                                   C                  -
 -                     58                                   C                  -
 -                     59                                   C                  -
 -                     60                                   C                  -
 -                     61                                   C                  -
 -                     62                                   C                  -
 -                     63                                   C                  -
 -                     64                                   C                  -
 -                     65                                   C                  -
 -                     66                                   C                  -
 -                     67                                   C                  -
 -                     68                                   C                  -
 -                     69                                   C                  -
 -                     70                                   C                  -
 -                     71                                   C                  -
 -                     72                                   C                  -
 -                     73                                   C                  -
 -                     74                                   C                  -
 -                     75                                   C                  -
 -                     76                                   C                  -
 -                     77                                   C                  -
 -                     78                                   C                  -
 -                     79                                   C                  -
 -                     80                                   C                  -
 -                     81                                   C                  -
 -                     82                                   C                  -
 -                     83                                   C                  -
 -                     84                                   C                  -
 -                     85                                   C                  -
 -                     86                                   C                  -
 -                     87                                   C                  -
 -                     88                                   C                  -
 -                     89                                   C                  -
 -                     90                                   C                  -
 -                     91                                   C                  -
 -                     92                                   C                  -
 -                     93                                   C                  -
 -                     94                                   C                  -
 -                     95                                   C                  -
 -                     96                                   C                  -
 -                     97                                   C                  -
 -                     98                                   C                  -
 -                     99                                   C                  -
 -                    100                                   C                  -
 -                    101                                   C                  -
 -                    102                                   C                  -
 -                    103                                   C                  -
 -                    104                                   C                  -
 -                    105                                   C                  -
 -                    106                                   C                  -
 -                    107                                   C                  -
 -                    108                                   C                  -
 -                    109                                   C                  -
 -                    110                                   C                  -
 -                    111                                   C                  -
 -                    112                                   C                  -
 -                    113                                   C                  -
 -                    114                                   C                  -
 -                    115                                   C                  -
 -                    116                                   C                  -
 -                    117                                   C                  -
 -                    118                                   C                  -
 -                    119                                   C                  -
 -                    120                                   C                  -
 -                    121                                   C                  -
 -                    122                                   C                  -
 -                    123                                   C                  -
 -                    124                                   C                  -
 -                    125                                   C                  -
 -                    126                                   C                  -
 -                    127                                   C                  -
 -                    128                                   C                  -
 -                    129                                   C                  -
 -                    130                                   C                  -
 -                    131                                   C                  -
 -                    132                                   C                  -
 -                    133                                   C                  -
 -                    134                                   C                  -
 -                    135                                   C                  -
 -                    136                                   C                  -
 -                    137                                   C                  -
 -                    138                                   C                  -
 -                    139                                   C                  -
 -                    140                                   C                  -
 -                    141                                   C                  -
 -                    142                                   C                  -
 -                    143                                   C                  -
 -                    144                                   C                  -
 -                    145                                   C                  -
 -                    146                                   C                  -
 -                    147                                   C                  -
 -                    148                                   C                  -
 -                    149                                   C                  -
 -                    150                                   C                  -
 -                    151                                   C                  -
 -                    152                                   C                  -
 -                    153                                   C                  -
 -                    154                                   C                  -
 -                    155                                   C                  -
 -                    156                                   C                  -
 -                    157                                   C                  -
 -                    158                                   C                  -
 -                    159                                   C                  -
 -                    160                                   C                  -
 -                    161                                   C                  -
 -                    162                                   C                  -
 -                    163                                   C                  -
 -                    164                                   C                  -
 -                    165                                   C                  -
 -                    166                                   C                  -
 -                    167                                   C                  -
 -                    168                                   C                  -
 -                    169                                   C                  -
 -                    170                                   C                  -
 -                    171                                   C                  -
 -                    172                                   C                  -
 -                    173                                   C                  -
 -                    174                                   C                  -
 -                    175                                   C                  -
 -                    176                                   C                  -
 -                    177                                   C                  -
 -                    178                                   C                  -
 -                    179                                   C                  -
 -                    180                                   C                  -
 -                    181                                   C                  -
 -                    182                                   C                  -
 -                    183                                   C                  -
 -                    184                                   C                  -
 -                    185                                   C                  -
 -                    186                                   C                  -
 -                    187                                   C                  -
 -                    188                                   C                  -
 -                    189                                   C                  -
 -                    190                                   C                  -
 -                    191                                   C                  -
 -                    192                                   C                  -
 -                    193                                   C                  -
 -                    194                                   C                  -
 -                    195                                   C                  -
 -                    196                                   C                  -
 -                    197                                   C                  -
 -                    198                                   C                  -
 -                    199                                   C                  -
 -                    200                                   C                  -
 -                    201                                   C                  -
 -                    202                                   C                  -
 -                    203                                   C                  -
 -                    204                                   C                  -
 -                    205                                   C                  -
 -                    206                                   C                  -
 -                    207                                   C                  -
 -                    208                                   C                  -
 -                    209                                   C                  -
 -                    210                                   C                  -
 -                    211                                   C                  -
 -                    212                                   C                  -
 -                    213                                   C                  -
 -                    214                                   C                  -
 -                    215                                   C                  -
 -                    216                                   C                  -
 -                    217                                   C                  -
 -                    218                                   C                  -
 -                    219                                   C                  -
 -                    220                                   C                  -
 -                    221                                   C                  -
 -                    222                                   C                  -
 -                    223                                   C                  -
 -                    224                                   C                  -
 -------------------------------------------------------------------------------

 *******************************************************************************
 *******************************************************************************
 **                                                                           **
 **     #####                         ##              ##                      **
 **    ##   ##            ##          ##              ##                      **
 **   ##     ##                       ##            ######                    **
 **   ##     ##  ##   ##  ##   #####  ##  ##   ####   ##    #####    #####    **
 **   ##     ##  ##   ##  ##  ##      ## ##   ##      ##   ##   ##  ##   ##   **
 **   ##  ## ##  ##   ##  ##  ##      ####     ###    ##   ######   ######    **
 **    ##  ###   ##   ##  ##  ##      ## ##      ##   ##   ##       ##        **
 **     #######   #####   ##   #####  ##  ##  ####    ##    #####   ##        **
 **           ##                                                    ##        **
 **                                                                           **
 **                                                ... make the atoms dance   **
 **                                                                           **
 **            Copyright (C) by CP2K developers group (2000-2022)             **
 **                      J. Chem. Phys. 152, 194103 (2020)                    **
 **                                                                           **
 *******************************************************************************


 TOTAL NUMBERS AND MAXIMUM NUMBERS

  Total number of            - Atomic kinds:                                   1
                             - Atoms:                                        224
                             - Shell sets:                                   224
                             - Shells:                                      1120
                             - Primitive Cartesian functions:               1120
                             - Cartesian basis functions:                   3136
                             - Spherical basis functions:                   2912

  Maximum angular momentum of- Orbital basis functions:                        2
                             - Local part of the GTH pseudopotential:          2
                             - Non-local part of the GTH pseudopotential:      0


 SCF PARAMETERS         Density guess:                                    ATOMIC
                        --------------------------------------------------------
                        max_scf:                                             100
                        max_scf_history:                                       0
                        max_diis:                                              4
                        --------------------------------------------------------
                        eps_scf:                                        3.00E-07
                        eps_scf_history:                                0.00E+00
                        eps_diis:                                       1.00E-01
                        eps_eigval:                                     1.00E-05
                        --------------------------------------------------------
                        level_shift [a.u.]:                             0.000000
                        added MOs                                       100  100
                        --------------------------------------------------------
                        Mixing method:                            BROYDEN_MIXING
                                                charge density mixing in g-space
                        --------------------------------------------------------
                        Smear method:                                FERMI_DIRAC
                        Electronic temperature [K]:                        300.0
                        Electronic temperature [a.u.]:                  9.50E-04
                        Accuracy threshold:                             1.00E-10
                        --------------------------------------------------------
                        Outer loop SCF in use 
                        No variables optimised in outer loop
                        eps_scf                                         1.00E-06
                        max_scf                                               30
                        DIIS optimization
                        DIIS buffer length                                     3
                        step_size                                       5.00E-01

 Spin 1

 Number of electrons:                                                        448
 Number of occupied orbitals:                                                448
 Number of molecular orbitals:                                               548

 Spin 2

 Number of electrons:                                                        448
 Number of occupied orbitals:                                                448
 Number of molecular orbitals:                                               548

 Number of orbital functions:                                               2912
 Number of independent orbital functions:                                   2912

 Extrapolation method: initial_guess


 SCF WAVEFUNCTION OPTIMIZATION

  Step     Update method      Time    Convergence         Total energy    Change
  ------------------------------------------------------------------------------
     1 NoMix/Diag. 0.10E+00   17.4     0.46320635     -1267.4606352391 -1.27E+03
     2 Broy./Diag. 0.10E+00   22.5     0.00287367     -1217.1682990740  5.03E+01
     3 Broy./Diag. 0.10E+00   22.6     0.03060073     -1255.6994976145 -3.85E+01
     4 Broy./Diag. 0.10E+00   22.6     0.00039398     -1272.1465026176 -1.64E+01
     5 Broy./Diag. 0.10E+00   22.8     0.00598695     -1272.8884982379 -7.42E-01
     6 Broy./Diag. 0.10E+00   22.8     0.00022504     -1274.3330420995 -1.44E+00
     7 Broy./Diag. 0.10E+00   22.9     0.00361115     -1274.8822490117 -5.49E-01
     8 Broy./Diag. 0.10E+00   23.0     0.00006766     -1275.3284343039 -4.46E-01
     9 Broy./Diag. 0.10E+00   23.1     0.00122968     -1275.6054458599 -2.77E-01
    10 Broy./Diag. 0.10E+00   23.2     0.00005275     -1275.8561291747 -2.51E-01
    11 Broy./Diag. 0.10E+00   23.2     0.00050506     -1275.8839966091 -2.79E-02
    12 Broy./Diag. 0.10E+00   23.3     0.00005447     -1275.9854182543 -1.01E-01
    13 Broy./Diag. 0.10E+00   23.3     0.00028067     -1275.9630193118  2.24E-02
    14 Broy./Diag. 0.10E+00   23.2     0.00002849     -1275.9897361977 -2.67E-02
    15 Broy./Diag. 0.10E+00   23.3     0.00016823     -1276.0057162353 -1.60E-02
    16 Broy./Diag. 0.10E+00   23.2     0.00001071     -1276.0216510935 -1.59E-02
    17 Broy./Diag. 0.10E+00   23.2     0.00004575     -1276.0185162053  3.13E-03
    18 Broy./Diag. 0.10E+00   23.2     0.00001586     -1276.0145549310  3.96E-03
    19 Broy./Diag. 0.10E+00   23.2     0.00000760     -1276.0143134815  2.41E-04
    20 Broy./Diag. 0.10E+00   23.1     0.00005729     -1276.0146711115 -3.58E-04
    21 Broy./Diag. 0.10E+00   23.1     0.00001258     -1276.0153576966 -6.87E-04
    22 Broy./Diag. 0.10E+00   23.1     0.00001897     -1276.0187215432 -3.36E-03
    23 Broy./Diag. 0.10E+00   23.1     0.00001787     -1276.0237134510 -4.99E-03
    24 Broy./Diag. 0.10E+00   23.1     0.00001023     -1276.0284456874 -4.73E-03
    25 Broy./Diag. 0.10E+00   23.1     0.00002304     -1276.0301013280 -1.66E-03
    26 Broy./Diag. 0.10E+00   23.1     0.00000637     -1276.0321473430 -2.05E-03
    27 Broy./Diag. 0.10E+00   23.2     0.00001980     -1276.0341787696 -2.03E-03
    28 Broy./Diag. 0.10E+00   23.2     0.00000225     -1276.0387921534 -4.61E-03
    29 Broy./Diag. 0.10E+00   23.2     0.00000885     -1276.0407584520 -1.97E-03
    30 Broy./Diag. 0.10E+00   23.2     0.00000461     -1276.0427882392 -2.03E-03
    31 Broy./Diag. 0.10E+00   23.1     0.00000981     -1276.0436663651 -8.78E-04
    32 Broy./Diag. 0.10E+00   23.1     0.00000554     -1276.0443111400 -6.45E-04
    33 Broy./Diag. 0.10E+00   23.1     0.00000469     -1276.0441617595  1.49E-04
    34 Broy./Diag. 0.10E+00   23.1     0.00000575     -1276.0439119023  2.50E-04
    35 Broy./Diag. 0.10E+00   23.1     0.00000194     -1276.0440424350 -1.31E-04
    36 Broy./Diag. 0.10E+00   23.1     0.00000506     -1276.0447482423 -7.06E-04
    37 Broy./Diag. 0.10E+00   23.1     0.00000265     -1276.0449286372 -1.80E-04
    38 Broy./Diag. 0.10E+00   23.1     0.00000277     -1276.0447556565  1.73E-04
    39 Broy./Diag. 0.10E+00   23.1     0.00000183     -1276.0445330237  2.23E-04
    40 Broy./Diag. 0.10E+00   23.2     0.00000150     -1276.0445225754  1.04E-05
    41 Broy./Diag. 0.10E+00   23.0     0.00000398     -1276.0444771728  4.54E-05
    42 Broy./Diag. 0.10E+00   23.1     0.00000129     -1276.0447376700 -2.60E-04
    43 Broy./Diag. 0.10E+00   23.1     0.00000342     -1276.0451424664 -4.05E-04
    44 Broy./Diag. 0.10E+00   23.1     0.00000090     -1276.0455759028 -4.33E-04
    45 Broy./Diag. 0.10E+00   23.1     0.00000114     -1276.0457149004 -1.39E-04
    46 Broy./Diag. 0.10E+00   23.1     0.00000130     -1276.0457931109 -7.82E-05
    47 Broy./Diag. 0.10E+00   23.2     0.00000044     -1276.0458879934 -9.49E-05
    48 Broy./Diag. 0.10E+00   23.1     0.00000116     -1276.0460082470 -1.20E-04
    49 Broy./Diag. 0.10E+00   23.2     0.00000050     -1276.0462033757 -1.95E-04
    50 Broy./Diag. 0.10E+00   23.2     0.00000056     -1276.0462877474 -8.44E-05
    51 Broy./Diag. 0.10E+00   23.2     0.00000045     -1276.0463500425 -6.23E-05
    52 Broy./Diag. 0.10E+00   23.1     0.00000022     -1276.0463647138 -1.47E-05

  *** SCF run converged in    52 steps ***


  Electronic density on regular grids:       -895.9999999996        0.0000000004
  Core density on regular grids:              895.9999999992       -0.0000000008
  Total charge density on r-space grids:       -0.0000000004
  Total charge density g-space grids:          -0.0000000004

  Overlap energy of the core charge distribution:               0.00004137936484
  Self energy of the core charge distribution:              -2987.04177559540722
  Core Hamiltonian energy:                                    936.45633337873528
  Hartree energy:                                            1166.69634415060591
  Exchange-correlation energy:                               -391.69979049030570
  Dispersion energy:                                           -0.45751753659458
  Electronic entropic energy:                                  -0.00000000021783
  Fermi energy:                                                -0.08082410424402

  Total energy:                                             -1276.04636471381946

  outer SCF iter =    1 RMS gradient =   0.22E-06 energy =      -1276.0463647138
  outer SCF loop converged in   1 iterations or   52 steps


  Integrated absolute spin density  :                               0.0000014194
  WARNING: S**2 computation does not yet treat fractional occupied orbitals

 *** WARNING in qs_loc_utils.F:1500 :: User requested the calculation of ***
 *** the localized wavefunction but the section LOCALIZE was not         ***
 *** specified. Localization will not be performed!                      ***


 -------------------------------------------------------------------------------
 -                                                                             -
 -  BSSE CALCULATION         FRAGMENT CONF: 01        FRAGMENT SUBCONF: 01     -
 -                           CHARGE =     0           MULTIPLICITY =     0     -
 -                                                                             -
 -                 ATOM INDEX                              ATOM NAME           -
 -                 ----------                              ---------           -
 -                    225                                   Na                 -
 -------------------------------------------------------------------------------

 *******************************************************************************
 *******************************************************************************
 **                                                                           **
 **     #####                         ##              ##                      **
 **    ##   ##            ##          ##              ##                      **
 **   ##     ##                       ##            ######                    **
 **   ##     ##  ##   ##  ##   #####  ##  ##   ####   ##    #####    #####    **
 **   ##     ##  ##   ##  ##  ##      ## ##   ##      ##   ##   ##  ##   ##   **
 **   ##  ## ##  ##   ##  ##  ##      ####     ###    ##   ######   ######    **
 **    ##  ###   ##   ##  ##  ##      ## ##      ##   ##   ##       ##        **
 **     #######   #####   ##   #####  ##  ##  ####    ##    #####   ##        **
 **           ##                                                    ##        **
 **                                                                           **
 **                                                ... make the atoms dance   **
 **                                                                           **
 **            Copyright (C) by CP2K developers group (2000-2022)             **
 **                      J. Chem. Phys. 152, 194103 (2020)                    **
 **                                                                           **
 *******************************************************************************

 *** WARNING in qs_environment.F:1470 :: More ADDED_MOs requested for beta ***
 *** spin than available.                                                  ***


 *** WARNING in qs_environment.F:1486 :: More added MOs requested than     ***
 *** available. The full set of unoccupied MOs will be used. Use           ***
 *** 'ADDED_MOS -1' to always use all available MOs and to get rid of this ***
 *** warning.                                                              ***



 TOTAL NUMBERS AND MAXIMUM NUMBERS

  Total number of            - Atomic kinds:                                   1
                             - Atoms:                                          1
                             - Shell sets:                                     1
                             - Shells:                                         5
                             - Primitive Cartesian functions:                  7
                             - Cartesian basis functions:                      9
                             - Spherical basis functions:                      9

  Maximum angular momentum of- Orbital basis functions:                        1
                             - Local part of the GTH pseudopotential:          2
                             - Non-local part of the GTH pseudopotential:      1


 SCF PARAMETERS         Density guess:                                    ATOMIC
                        --------------------------------------------------------
                        max_scf:                                             100
                        max_scf_history:                                       0
                        max_diis:                                              4
                        --------------------------------------------------------
                        eps_scf:                                        3.00E-07
                        eps_scf_history:                                0.00E+00
                        eps_diis:                                       1.00E-01
                        eps_eigval:                                     1.00E-05
                        --------------------------------------------------------
                        level_shift [a.u.]:                             0.000000
                        added MOs                                         4    5
                        --------------------------------------------------------
                        Mixing method:                            BROYDEN_MIXING
                                                charge density mixing in g-space
                        --------------------------------------------------------
                        Smear method:                                FERMI_DIRAC
                        Electronic temperature [K]:                        300.0
                        Electronic temperature [a.u.]:                  9.50E-04
                        Accuracy threshold:                             1.00E-10
                        --------------------------------------------------------
                        Outer loop SCF in use 
                        No variables optimised in outer loop
                        eps_scf                                         1.00E-06
                        max_scf                                               30
                        DIIS optimization
                        DIIS buffer length                                     3
                        step_size                                       5.00E-01

 Spin 1

 Number of electrons:                                                          5
 Number of occupied orbitals:                                                  5
 Number of molecular orbitals:                                                 9

 Spin 2

 Number of electrons:                                                          4
 Number of occupied orbitals:                                                  4
 Number of molecular orbitals:                                                 9

 Number of orbital functions:                                                  9
 Number of independent orbital functions:                                      9

 Extrapolation method: initial_guess


 SCF WAVEFUNCTION OPTIMIZATION

  Step     Update method      Time    Convergence         Total energy    Change
  ------------------------------------------------------------------------------
     1 NoMix/Diag. 0.10E+00    1.2     0.42029956       -47.1734387524 -4.72E+01
     2 Broy./Diag. 0.10E+00    2.9     0.00656692       -47.1323095700  4.11E-02
     3 Broy./Diag. 0.10E+00    2.9     0.02134409       -47.1735872538 -4.13E-02
     4 Broy./Diag. 0.10E+00    3.1     0.00031717       -47.1653378969  8.25E-03
     5 Broy./Diag. 0.10E+00    3.1     0.12557132       -47.1762896904 -1.10E-02
     6 Broy./Diag. 0.10E+00    3.5     0.01742384       -46.7687602266  4.08E-01
     7 Broy./Diag. 0.10E+00    4.7     0.00431607       -46.7602059392  8.55E-03
     8 Broy./Diag. 0.10E+00    3.6     0.01203461       -46.7748102484 -1.46E-02
     9 Broy./Diag. 0.10E+00    3.7     0.04280904       -46.8692818449 -9.45E-02
    10 Broy./Diag. 0.10E+00    3.6     0.01747129       -47.0219080359 -1.53E-01
    11 Broy./Diag. 0.10E+00    3.6     0.00533782       -47.0910392865 -6.91E-02
    12 Broy./Diag. 0.10E+00    3.6     0.01540783       -47.1089493938 -1.79E-02
    13 Broy./Diag. 0.10E+00    3.6     0.01903650       -47.1623100903 -5.34E-02
    14 Broy./Diag. 0.10E+00    3.6     0.00431873       -47.2150662748 -5.28E-02
    15 Broy./Diag. 0.10E+00    3.7     0.01037936       -47.1822985660  3.28E-02
    16 Broy./Diag. 0.10E+00    3.7     0.01058820       -47.2015409042 -1.92E-02
    17 Broy./Diag. 0.10E+00    3.9     0.00147679       -47.2441403603 -4.26E-02
    18 Broy./Diag. 0.10E+00    5.5     0.00378416       -47.2369116605  7.23E-03
    19 Broy./Diag. 0.10E+00    3.5     0.00334032       -47.2662226259 -2.93E-02
    20 Broy./Diag. 0.10E+00    3.8     0.00223489       -47.2842389303 -1.80E-02
    21 Broy./Diag. 0.10E+00    3.7     0.00218295       -47.2847982590 -5.59E-04
    22 Broy./Diag. 0.10E+00    3.6     0.00029373       -47.2703243648  1.45E-02
    23 Broy./Diag. 0.10E+00    3.7     0.00009405       -47.2599316777  1.04E-02
    24 Broy./Diag. 0.10E+00    3.6     0.01494249       -47.2694465341 -9.51E-03
    25 Broy./Diag. 0.10E+00    3.6     0.00375255       -47.1982674846  7.12E-02
    26 Broy./Diag. 0.10E+00    3.8     0.00241935       -47.1817292408  1.65E-02
    27 Broy./Diag. 0.10E+00    3.7     0.00114088       -47.1733473204  8.38E-03
    28 Broy./Diag. 0.10E+00    4.6     0.00045747       -47.1700986783  3.25E-03
    29 Broy./Diag. 0.10E+00    4.8     0.00072970       -47.1688211245  1.28E-03
    30 Broy./Diag. 0.10E+00    3.6     0.00225067       -47.1717193572 -2.90E-03
    31 Broy./Diag. 0.10E+00    3.6     0.00205780       -47.1815063652 -9.79E-03
    32 Broy./Diag. 0.10E+00    3.6     0.00128980       -47.1906344613 -9.13E-03
    33 Broy./Diag. 0.10E+00    3.6     0.00101918       -47.1951033845 -4.47E-03
    34 Broy./Diag. 0.10E+00    3.6     0.00502420       -47.2017965467 -6.69E-03
    35 Broy./Diag. 0.10E+00    3.6     0.00367711       -47.2273502188 -2.56E-02
    36 Broy./Diag. 0.10E+00    3.7     0.00564182       -47.2446196546 -1.73E-02
    37 Broy./Diag. 0.10E+00    3.6     0.00130360       -47.2653282270 -2.07E-02
    38 Broy./Diag. 0.10E+00    4.0     0.00035125       -47.2600136843  5.31E-03
    39 Broy./Diag. 0.10E+00    5.4     0.00122140       -47.2628850204 -2.87E-03
    40 Broy./Diag. 0.10E+00    3.7     0.00204837       -47.2552551336  7.63E-03
    41 Broy./Diag. 0.10E+00    3.8     0.00068507       -47.2394828504  1.58E-02
    42 Broy./Diag. 0.10E+00    3.6     0.00031731       -47.2269182698  1.26E-02
    43 Broy./Diag. 0.10E+00    3.6     0.00028483       -47.2125848946  1.43E-02
    44 Broy./Diag. 0.10E+00    3.6     0.00153591       -47.2017280314  1.09E-02
    45 Broy./Diag. 0.10E+00    3.6     0.00075073       -47.1875127047  1.42E-02
    46 Broy./Diag. 0.10E+00    3.6     0.00068501       -47.1823225964  5.19E-03
    47 Broy./Diag. 0.10E+00    3.7     0.00031039       -47.1847098294 -2.39E-03
    48 Broy./Diag. 0.10E+00    3.7     0.00296921       -47.1835290019  1.18E-03
    49 Broy./Diag. 0.10E+00    3.8     0.00136084       -47.2078311709 -2.43E-02
    50 Broy./Diag. 0.10E+00    5.6     0.00026817       -47.2151674361 -7.34E-03
    51 Broy./Diag. 0.10E+00    3.6     0.00033291       -47.2174958962 -2.33E-03
    52 Broy./Diag. 0.10E+00    3.6     0.00012243       -47.2167861071  7.10E-04
    53 Broy./Diag. 0.10E+00    3.6     0.00058955       -47.2200055998 -3.22E-03
    54 Broy./Diag. 0.10E+00    3.6     0.00018558       -47.2232934247 -3.29E-03
    55 Broy./Diag. 0.10E+00    3.6     0.00033000       -47.2142130827  9.08E-03
    56 Broy./Diag. 0.10E+00    3.6     0.00049427       -47.2088769223  5.34E-03
    57 Broy./Diag. 0.10E+00    3.6     0.00044751       -47.1892512497  1.96E-02
    58 Broy./Diag. 0.10E+00    3.7     0.00017558       -47.1787685845  1.05E-02
    59 Broy./Diag. 0.10E+00    4.0     0.00014723       -47.1719245962  6.84E-03
    60 Broy./Diag. 0.10E+00    4.9     0.00017646       -47.1653550561  6.57E-03
    61 Broy./Diag. 0.10E+00    4.1     0.00009922       -47.1618653723  3.49E-03
    62 Broy./Diag. 0.10E+00    3.8     0.00009257       -47.1658328444 -3.97E-03
    63 Broy./Diag. 0.10E+00    3.5     0.00001411       -47.1671605215 -1.33E-03
    64 Broy./Diag. 0.10E+00    3.6     0.00003223       -47.1679071564 -7.47E-04
    65 Broy./Diag. 0.10E+00    3.6     0.00004039       -47.1673742781  5.33E-04
    66 Broy./Diag. 0.10E+00    3.6     0.00011983       -47.1673196692  5.46E-05
    67 Broy./Diag. 0.10E+00    3.5     0.00007498       -47.1671628067  1.57E-04
    68 Broy./Diag. 0.10E+00    3.7     0.00001737       -47.1672844646 -1.22E-04
    69 Broy./Diag. 0.10E+00    3.7     0.00004006       -47.1675806963 -2.96E-04
    70 Broy./Diag. 0.10E+00    4.0     0.00008338       -47.1681771484 -5.96E-04
    71 Broy./Diag. 0.10E+00    5.5     0.00004318       -47.1687447948 -5.68E-04
    72 Broy./Diag. 0.10E+00    3.5     0.00000775       -47.1688940619 -1.49E-04
    73 Broy./Diag. 0.10E+00    3.8     0.00001667       -47.1688877648  6.30E-06
    74 Broy./Diag. 0.10E+00    3.6     0.00002187       -47.1690282499 -1.40E-04
    75 Broy./Diag. 0.10E+00    3.6     0.00002634       -47.1691609334 -1.33E-04
    76 Broy./Diag. 0.10E+00    3.6     0.00020262       -47.1674788426  1.68E-03
    77 Broy./Diag. 0.10E+00    3.6     0.00004588       -47.1668945276  5.84E-04
    78 Broy./Diag. 0.10E+00    3.6     0.00001198       -47.1673128727 -4.18E-04
    79 Broy./Diag. 0.10E+00    3.7     0.00000651       -47.1673585211 -4.56E-05
    80 Broy./Diag. 0.10E+00    3.8     0.00002135       -47.1673509174  7.60E-06
    81 Broy./Diag. 0.10E+00    3.8     0.00002127       -47.1673824207 -3.15E-05
    82 Broy./Diag. 0.10E+00    5.5     0.00001379       -47.1673944291 -1.20E-05
    83 Broy./Diag. 0.10E+00    3.7     0.00016252       -47.1674357471 -4.13E-05
    84 Broy./Diag. 0.10E+00    3.6     0.00009264       -47.1670863076  3.49E-04
    85 Broy./Diag. 0.10E+00    3.6     0.00002376       -47.1671754444 -8.91E-05
    86 Broy./Diag. 0.10E+00    3.6     0.00001570       -47.1671842577 -8.81E-06
    87 Broy./Diag. 0.10E+00    3.6     0.00001446       -47.1673362345 -1.52E-04
    88 Broy./Diag. 0.10E+00    3.6     0.00008202       -47.1674966150 -1.60E-04
    89 Broy./Diag. 0.10E+00    3.6     0.00004090       -47.1679261147 -4.29E-04
    90 Broy./Diag. 0.10E+00    3.7     0.00011462       -47.1680957055 -1.70E-04
    91 Broy./Diag. 0.10E+00    3.9     0.00002180       -47.1676515912  4.44E-04
    92 Broy./Diag. 0.10E+00    4.7     0.00001078       -47.1675120158  1.40E-04
    93 Broy./Diag. 0.10E+00    4.5     0.00000991       -47.1674593443  5.27E-05
    94 Broy./Diag. 0.10E+00    3.6     0.00001374       -47.1674813589 -2.20E-05
    95 Broy./Diag. 0.10E+00    3.6     0.00003690       -47.1675452925 -6.39E-05
    96 Broy./Diag. 0.10E+00    3.6     0.00004830       -47.1676789784 -1.34E-04
    97 Broy./Diag. 0.10E+00    3.6     0.00005448       -47.1678426256 -1.64E-04
    98 Broy./Diag. 0.10E+00    3.6     0.00002883       -47.1680777137 -2.35E-04
    99 Broy./Diag. 0.10E+00    3.6     0.00000673       -47.1680165870  6.11E-05
   100 Broy./Diag. 0.10E+00    3.7     0.00001211       -47.1679445838  7.20E-05

  Leaving inner SCF loop after reaching   100 steps.


  Electronic density on regular grids:         -9.0001380964       -0.0001380964
  Core density on regular grids:                9.0000000000       -0.0000000000
  Total charge density on r-space grids:       -0.0001380964
  Total charge density g-space grids:          -0.0001380964

  Overlap energy of the core charge distribution:               0.00000000000000
  Self energy of the core charge distribution:                -96.60649019442629
  Core Hamiltonian energy:                                     29.76354869000876
  Hartree energy:                                              26.72869307094637
  Exchange-correlation energy:                                 -7.05369325644677
  Dispersion energy:                                           -0.00000289392739
  Electronic entropic energy:                                  -0.00000000000000
  Fermi energy:                                                -0.04880526121352

  Total energy:                                               -47.16794458384531

  outer SCF iter =    1 RMS gradient =   0.12E-04 energy =        -47.1679445838
     1 Broy./Diag. 0.10E+00    5.8     0.00035356       -47.1674050593  5.40E-04
     2 Broy./Diag. 0.10E+00    3.7     0.00049007       -47.1690771586 -1.67E-03
     3 Broy./Diag. 0.10E+00    4.3     0.00005832       -47.1670821341  2.00E-03
     4 Broy./Diag. 0.10E+00    5.1     0.00003846       -47.1673589942 -2.77E-04
     5 Broy./Diag. 0.10E+00    3.5     0.00002186       -47.1675250486 -1.66E-04
     6 Broy./Diag. 0.10E+00    3.6     0.00002039       -47.1676034760 -7.84E-05
     7 Broy./Diag. 0.10E+00    3.6     0.00002287       -47.1676933744 -8.99E-05
     8 Broy./Diag. 0.10E+00    3.6     0.00002678       -47.1678027879 -1.09E-04
     9 Broy./Diag. 0.10E+00    3.6     0.00000776       -47.1679323158 -1.30E-04
    10 Broy./Diag. 0.10E+00    3.6     0.00001576       -47.1679567869 -2.45E-05
    11 Broy./Diag. 0.10E+00    3.6     0.00001226       -47.1678822302  7.46E-05
    12 Broy./Diag. 0.10E+00    3.7     0.00000551       -47.1678307657  5.15E-05
    13 Broy./Diag. 0.10E+00    3.9     0.00000124       -47.1678273808  3.38E-06
    14 Broy./Diag. 0.10E+00    4.8     0.00000240       -47.1678592485 -3.19E-05
    15 Broy./Diag. 0.10E+00    4.2     0.00000108       -47.1678233330  3.59E-05
    16 Broy./Diag. 0.10E+00    3.7     0.00000229       -47.1677085936  1.15E-04
    17 Broy./Diag. 0.10E+00    3.5     0.00000173       -47.1676225020  8.61E-05
    18 Broy./Diag. 0.10E+00    3.6     0.00000085       -47.1675770529  4.54E-05
    19 Broy./Diag. 0.10E+00    3.5     0.00000127       -47.1675410659  3.60E-05
    20 Broy./Diag. 0.10E+00    3.6     0.00000073       -47.1674949762  4.61E-05
    21 Broy./Diag. 0.10E+00    3.5     0.00000140       -47.1674231064  7.19E-05
    22 Broy./Diag. 0.10E+00    3.7     0.00000101       -47.1674017281  2.14E-05
    23 Broy./Diag. 0.10E+00    3.6     0.00000080       -47.1674123861 -1.07E-05
    24 Broy./Diag. 0.10E+00    3.9     0.00000098       -47.1674035316  8.85E-06
    25 Broy./Diag. 0.10E+00    5.3     0.00000242       -47.1674008414  2.69E-06
    26 Broy./Diag. 0.10E+00    3.7     0.00000046       -47.1673803758  2.05E-05
    27 Broy./Diag. 0.10E+00    3.7     0.00000373       -47.1673794135  9.62E-07
    28 Broy./Diag. 0.10E+00    3.6     0.00000070       -47.1673911254 -1.17E-05
    29 Broy./Diag. 0.10E+00    3.6     0.00000034       -47.1674037277 -1.26E-05
    30 Broy./Diag. 0.10E+00    3.6     0.00000387       -47.1674100739 -6.35E-06
    31 Broy./Diag. 0.10E+00    3.6     0.00000201       -47.1674169528 -6.88E-06
    32 Broy./Diag. 0.10E+00    3.6     0.00000432       -47.1674060603  1.09E-05
    33 Broy./Diag. 0.10E+00    3.6     0.00000071       -47.1673892221  1.68E-05
    34 Broy./Diag. 0.10E+00    3.9     0.00000147       -47.1673911522 -1.93E-06
    35 Broy./Diag. 0.10E+00    3.7     0.00000236       -47.1673941081 -2.96E-06
    36 Broy./Diag. 0.10E+00    5.5     0.00002199       -47.1673974930 -3.38E-06
    37 Broy./Diag. 0.10E+00    3.6     0.00000774       -47.1674422686 -4.48E-05
    38 Broy./Diag. 0.10E+00    3.7     0.00000060       -47.1674175874  2.47E-05
    39 Broy./Diag. 0.10E+00    3.6     0.00000037       -47.1674246695 -7.08E-06
    40 Broy./Diag. 0.10E+00    3.6     0.00001049       -47.1674279759 -3.31E-06
    41 Broy./Diag. 0.10E+00    3.6     0.00000598       -47.1674555848 -2.76E-05
    42 Broy./Diag. 0.10E+00    3.6     0.00000111       -47.1674765895 -2.10E-05
    43 Broy./Diag. 0.10E+00    3.6     0.00000091       -47.1674832467 -6.66E-06
    44 Broy./Diag. 0.10E+00    3.7     0.00000252       -47.1674872508 -4.00E-06
    45 Broy./Diag. 0.10E+00    3.8     0.00000625       -47.1674746232  1.26E-05
    46 Broy./Diag. 0.10E+00    4.7     0.00000550       -47.1674294234  4.52E-05
    47 Broy./Diag. 0.10E+00    4.7     0.00000444       -47.1673933252  3.61E-05
    48 Broy./Diag. 0.10E+00    3.6     0.00000231       -47.1674059995 -1.27E-05
    49 Broy./Diag. 0.10E+00    3.6     0.00000565       -47.1674190215 -1.30E-05
    50 Broy./Diag. 0.10E+00    3.6     0.00000551       -47.1674473383 -2.83E-05
    51 Broy./Diag. 0.10E+00    3.6     0.00000086       -47.1674659090 -1.86E-05
    52 Broy./Diag. 0.10E+00    3.6     0.00000213       -47.1674751637 -9.25E-06
    53 Broy./Diag. 0.10E+00    3.6     0.00000009       -47.1674792821 -4.12E-06

  *** SCF run converged in    53 steps ***


  Electronic density on regular grids:         -9.0001380923       -0.0001380923
  Core density on regular grids:                9.0000000000       -0.0000000000
  Total charge density on r-space grids:       -0.0001380923
  Total charge density g-space grids:          -0.0001380923

  Overlap energy of the core charge distribution:               0.00000000000000
  Self energy of the core charge distribution:                -96.60649019442629
  Core Hamiltonian energy:                                     29.76336396275947
  Hartree energy:                                              26.72923633358770
  Exchange-correlation energy:                                 -7.05358649005052
  Dispersion energy:                                           -0.00000289392739
  Electronic entropic energy:                                  -0.00000000000000
  Fermi energy:                                                -0.04824677533659

  Total energy:                                               -47.16747928205703

  outer SCF iter =    2 RMS gradient =   0.93E-07 energy =        -47.1674792821
  outer SCF loop converged in   2 iterations or  153 steps


  Integrated absolute spin density  :                               1.0000478919
  WARNING: S**2 computation does not yet treat fractional occupied orbitals

 *** WARNING in qs_loc_utils.F:1500 :: User requested the calculation of ***
 *** the localized wavefunction but the section LOCALIZE was not         ***
 *** specified. Localization will not be performed!                      ***


 -------------------------------------------------------------------------------
 -                                                                             -
 -  BSSE CALCULATION         FRAGMENT CONF: 11        FRAGMENT SUBCONF: 10     -
 -                           CHARGE =     0           MULTIPLICITY =     0     -
 -                                                                             -
 -                 ATOM INDEX                              ATOM NAME           -
 -                 ----------                              ---------           -
 -                      1                                   C                  -
 -                      2                                   C                  -
 -                      3                                   C                  -
 -                      4                                   C                  -
 -                      5                                   C                  -
 -                      6                                   C                  -
 -                      7                                   C                  -
 -                      8                                   C                  -
 -                      9                                   C                  -
 -                     10                                   C                  -
 -                     11                                   C                  -
 -                     12                                   C                  -
 -                     13                                   C                  -
 -                     14                                   C                  -
 -                     15                                   C                  -
 -                     16                                   C                  -
 -                     17                                   C                  -
 -                     18                                   C                  -
 -                     19                                   C                  -
 -                     20                                   C                  -
 -                     21                                   C                  -
 -                     22                                   C                  -
 -                     23                                   C                  -
 -                     24                                   C                  -
 -                     25                                   C                  -
 -                     26                                   C                  -
 -                     27                                   C                  -
 -                     28                                   C                  -
 -                     29                                   C                  -
 -                     30                                   C                  -
 -                     31                                   C                  -
 -                     32                                   C                  -
 -                     33                                   C                  -
 -                     34                                   C                  -
 -                     35                                   C                  -
 -                     36                                   C                  -
 -                     37                                   C                  -
 -                     38                                   C                  -
 -                     39                                   C                  -
 -                     40                                   C                  -
 -                     41                                   C                  -
 -                     42                                   C                  -
 -                     43                                   C                  -
 -                     44                                   C                  -
 -                     45                                   C                  -
 -                     46                                   C                  -
 -                     47                                   C                  -
 -                     48                                   C                  -
 -                     49                                   C                  -
 -                     50                                   C                  -
 -                     51                                   C                  -
 -                     52                                   C                  -
 -                     53                                   C                  -
 -                     54                                   C                  -
 -                     55                                   C                  -
 -                     56                                   C                  -
 -                     57                                   C                  -
 -                     58                                   C                  -
 -                     59                                   C                  -
 -                     60                                   C                  -
 -                     61                                   C                  -
 -                     62                                   C                  -
 -                     63                                   C                  -
 -                     64                                   C                  -
 -                     65                                   C                  -
 -                     66                                   C                  -
 -                     67                                   C                  -
 -                     68                                   C                  -
 -                     69                                   C                  -
 -                     70                                   C                  -
 -                     71                                   C                  -
 -                     72                                   C                  -
 -                     73                                   C                  -
 -                     74                                   C                  -
 -                     75                                   C                  -
 -                     76                                   C                  -
 -                     77                                   C                  -
 -                     78                                   C                  -
 -                     79                                   C                  -
 -                     80                                   C                  -
 -                     81                                   C                  -
 -                     82                                   C                  -
 -                     83                                   C                  -
 -                     84                                   C                  -
 -                     85                                   C                  -
 -                     86                                   C                  -
 -                     87                                   C                  -
 -                     88                                   C                  -
 -                     89                                   C                  -
 -                     90                                   C                  -
 -                     91                                   C                  -
 -                     92                                   C                  -
 -                     93                                   C                  -
 -                     94                                   C                  -
 -                     95                                   C                  -
 -                     96                                   C                  -
 -                     97                                   C                  -
 -                     98                                   C                  -
 -                     99                                   C                  -
 -                    100                                   C                  -
 -                    101                                   C                  -
 -                    102                                   C                  -
 -                    103                                   C                  -
 -                    104                                   C                  -
 -                    105                                   C                  -
 -                    106                                   C                  -
 -                    107                                   C                  -
 -                    108                                   C                  -
 -                    109                                   C                  -
 -                    110                                   C                  -
 -                    111                                   C                  -
 -                    112                                   C                  -
 -                    113                                   C                  -
 -                    114                                   C                  -
 -                    115                                   C                  -
 -                    116                                   C                  -
 -                    117                                   C                  -
 -                    118                                   C                  -
 -                    119                                   C                  -
 -                    120                                   C                  -
 -                    121                                   C                  -
 -                    122                                   C                  -
 -                    123                                   C                  -
 -                    124                                   C                  -
 -                    125                                   C                  -
 -                    126                                   C                  -
 -                    127                                   C                  -
 -                    128                                   C                  -
 -                    129                                   C                  -
 -                    130                                   C                  -
 -                    131                                   C                  -
 -                    132                                   C                  -
 -                    133                                   C                  -
 -                    134                                   C                  -
 -                    135                                   C                  -
 -                    136                                   C                  -
 -                    137                                   C                  -
 -                    138                                   C                  -
 -                    139                                   C                  -
 -                    140                                   C                  -
 -                    141                                   C                  -
 -                    142                                   C                  -
 -                    143                                   C                  -
 -                    144                                   C                  -
 -                    145                                   C                  -
 -                    146                                   C                  -
 -                    147                                   C                  -
 -                    148                                   C                  -
 -                    149                                   C                  -
 -                    150                                   C                  -
 -                    151                                   C                  -
 -                    152                                   C                  -
 -                    153                                   C                  -
 -                    154                                   C                  -
 -                    155                                   C                  -
 -                    156                                   C                  -
 -                    157                                   C                  -
 -                    158                                   C                  -
 -                    159                                   C                  -
 -                    160                                   C                  -
 -                    161                                   C                  -
 -                    162                                   C                  -
 -                    163                                   C                  -
 -                    164                                   C                  -
 -                    165                                   C                  -
 -                    166                                   C                  -
 -                    167                                   C                  -
 -                    168                                   C                  -
 -                    169                                   C                  -
 -                    170                                   C                  -
 -                    171                                   C                  -
 -                    172                                   C                  -
 -                    173                                   C                  -
 -                    174                                   C                  -
 -                    175                                   C                  -
 -                    176                                   C                  -
 -                    177                                   C                  -
 -                    178                                   C                  -
 -                    179                                   C                  -
 -                    180                                   C                  -
 -                    181                                   C                  -
 -                    182                                   C                  -
 -                    183                                   C                  -
 -                    184                                   C                  -
 -                    185                                   C                  -
 -                    186                                   C                  -
 -                    187                                   C                  -
 -                    188                                   C                  -
 -                    189                                   C                  -
 -                    190                                   C                  -
 -                    191                                   C                  -
 -                    192                                   C                  -
 -                    193                                   C                  -
 -                    194                                   C                  -
 -                    195                                   C                  -
 -                    196                                   C                  -
 -                    197                                   C                  -
 -                    198                                   C                  -
 -                    199                                   C                  -
 -                    200                                   C                  -
 -                    201                                   C                  -
 -                    202                                   C                  -
 -                    203                                   C                  -
 -                    204                                   C                  -
 -                    205                                   C                  -
 -                    206                                   C                  -
 -                    207                                   C                  -
 -                    208                                   C                  -
 -                    209                                   C                  -
 -                    210                                   C                  -
 -                    211                                   C                  -
 -                    212                                   C                  -
[...]
    39 Broy./Diag. 0.10E+00   13.6     0.00000023     -1323.1982566324 -3.73E-05

  *** SCF run converged in    39 steps ***


  Electronic density on regular grids:       -905.0001411569       -0.0001411569
  Core density on regular grids:              904.9999999992       -0.0000000008
  Total charge density on r-space grids:       -0.0001411577
  Total charge density g-space grids:          -0.0001411577

  Overlap energy of the core charge distribution:               0.00004137936484
  Self energy of the core charge distribution:              -3083.64826578983366
  Core Hamiltonian energy:                                    967.18892932906635
  Hartree energy:                                            1192.84444932576253
  Exchange-correlation energy:                               -399.11963614164472
  Dispersion energy:                                           -0.46161474894744
  Electronic entropic energy:                                  -0.00215998675250
  Fermi energy:                                                -0.06268011918077

  Total energy:                                             -1323.19825663243955

  outer SCF iter =    1 RMS gradient =   0.23E-06 energy =      -1323.1982566324
  outer SCF loop converged in   1 iterations or   39 steps


  Integrated absolute spin density  :                               0.0009422784
  WARNING: S**2 computation does not yet treat fractional occupied orbitals

 *** WARNING in qs_loc_utils.F:1500 :: User requested the calculation of ***
 *** the localized wavefunction but the section LOCALIZE was not         ***
 *** specified. Localization will not be performed!                      ***


 -------------------------------------------------------------------------------
 -                                                                             -
 -                                 BSSE RESULTS                                -
 -                                                                             -
 -                 CP-corrected Total energy:    -1323.193190                  -
 -                                                                             -
 -                       1-body contribution:    -1276.046365                  -
 -                       1-body contribution:      -47.167479                  -
 -                                                                             -
 -                       2-body contribution:        0.020654                  -
 -                 BSSE-free interaction energy:        0.020654               -
 -------------------------------------------------------------------------------

 -------------------------------------------------------------------------------
 -                                                                             -
 -                                DBCSR STATISTICS                             -
 -                                                                             -
 -------------------------------------------------------------------------------
 COUNTER                                    TOTAL       BLAS       SMM       ACC
 flops     9 x     9 x     8               304560     100.0%      0.0%      0.0%
 flops     9 x     9 x     9               788778     100.0%      0.0%      0.0%
 flops     9 x     9 x   136               859248     100.0%      0.0%      0.0%
 flops     9 x     9 x   137               865566     100.0%      0.0%      0.0%
 flops     9 x     9 x   132              2223936     100.0%      0.0%      0.0%
 flops     9 x     9 x   160              4717440     100.0%      0.0%      0.0%
 flops     9 x     9 x    32              7309440     100.0%      0.0%      0.0%
 flops     9 x     9 x   128              7547904     100.0%      0.0%      0.0%
 flops     9 x    13 x     8             49271040     100.0%      0.0%      0.0%
 flops    13 x     9 x     8             49271040     100.0%      0.0%      0.0%
 flops     9 x    13 x     9             55429920     100.0%      0.0%      0.0%
 flops    13 x     9 x     9             55429920     100.0%      0.0%      0.0%
 flops     9 x    13 x   136            139007232     100.0%      0.0%      0.0%
 flops    13 x     9 x   136            139007232     100.0%      0.0%      0.0%
 flops     9 x    13 x   137            140029344     100.0%      0.0%      0.0%
 flops    13 x     9 x   137            140029344     100.0%      0.0%      0.0%
 flops     9 x    13 x   132            359783424     100.0%      0.0%      0.0%
 flops    13 x     9 x   132            359783424     100.0%      0.0%      0.0%
 flops     9 x    13 x   160            763176960     100.0%      0.0%      0.0%
 flops    13 x     9 x   160            763176960     100.0%      0.0%      0.0%
 flops     9 x    13 x    32           1182504960     100.0%      0.0%      0.0%
 flops    13 x     9 x    32           1182504960     100.0%      0.0%      0.0%
 flops     9 x    13 x   128           1221083136     100.0%      0.0%      0.0%
 flops    13 x     9 x   128           1221083136     100.0%      0.0%      0.0%
 flops    13 x    13 x     8          16013088000     100.0%      0.0%      0.0%
 flops    13 x    13 x     9          18014724000     100.0%      0.0%      0.0%
 flops    13 x    13 x   136          45177350400     100.0%      0.0%      0.0%
 flops    13 x    13 x   137          45509536800     100.0%      0.0%      0.0%
 flops    13 x    13 x   132         233859225600     100.0%      0.0%      0.0%
 flops    13 x    13 x    32         384314112000     100.0%      0.0%      0.0%
 flops    13 x    13 x   160         389765376000     100.0%      0.0%      0.0%
 flops    13 x    13 x   128         623624601600     100.0%      0.0%      0.0%
 flops inhomo. stacks                           0       0.0%      0.0%      0.0%
 flops total                         1.764123E+12     100.0%      0.0%      0.0%
 flops max/rank                    113.210255E+09     100.0%      0.0%      0.0%
 matmuls inhomo. stacks                         0       0.0%      0.0%      0.0%
 matmuls total                           76791906     100.0%      0.0%      0.0%
 number of processed stacks                117938     100.0%      0.0%      0.0%
 average stack size                                   651.1       0.0       0.0
 marketing flops                     2.235433E+12
 -------------------------------------------------------------------------------
 # multiplications                           1062
 max memory usage/rank               1.289495E+09
 # max total images/rank                        1
 # max 3D layers                                1
 # MPI messages exchanged                  101952
 MPI messages size (bytes):
  total size                        28.886589E+09
  min size                           0.000000E+00
  max size                         943.360000E+03
  average size                     283.335188E+03
 MPI breakdown and total messages size (bytes):
             size <=      128               27540                        0
       128 < size <=     8192                1836                  1189728
      8192 < size <=    32768                   0                        0
     32768 < size <=   131072               11280                560130960
    131072 < size <=  4194304               61296              28325296848
   4194304 < size <= 16777216                   0                        0
  16777216 < size                               0                        0
 -------------------------------------------------------------------------------
 -                                                                             -
 -                      DBCSR MESSAGE PASSING PERFORMANCE                      -
 -                                                                             -
 -------------------------------------------------------------------------------
 ROUTINE             CALLS      AVE VOLUME [Bytes]
 MP_Bcast               33                     12.
 MP_Allreduce         7527                      8.
 MP_Alltoall         29796                 737373.
 MP_ISend            16992                 114265.
 MP_IRecv            16992                 100396.
 -------------------------------------------------------------------------------

 -------------------------------------------------------------------------------
 -                                                                             -
 -                                DBM STATISTICS                               -
 -                                                                             -
 -------------------------------------------------------------------------------
    M  x    N  x    K                                          COUNT     PERCENT
 -------------------------------------------------------------------------------

 -------------------------------------------------------------------------------
 -                                                                             -
 -                                GRID STATISTICS                              -
 -                                                                             -
 -------------------------------------------------------------------------------
 LP    KERNEL             BACKEND                              COUNT     PERCENT
 4     collocate general  REF                              165912532      49.65%
 4     integrate general  REF                              164175228      49.13%
 3     collocate general  REF                                1981238       0.59%
 3     integrate general  REF                                1963172       0.59%
 2     collocate general  REF                                  47334       0.01%
 2     integrate general  REF                                  46942       0.01%
 0     collocate general  REF                                  10800       0.00%
 -------------------------------------------------------------------------------

 MEMORY| Estimated peak process memory [MiB]                                1230

 -------------------------------------------------------------------------------
 -                                                                             -
 -                         MESSAGE PASSING PERFORMANCE                         -
 -                                                                             -
 -------------------------------------------------------------------------------

 ROUTINE             CALLS      AVE VOLUME [Bytes]
 MP_Group               24
 MP_Bcast             1742                 555798.
 MP_Allreduce        11535                    630.
 MP_Sync              1392
 MP_Alltoall         13386               22432940.
 MP_SendRecv         56364                 475614.
 MP_ISendRecv        43200                 470707.
 MP_Wait             75325
 MP_comm_split         306
 MP_ISend            23252                2841699.
 MP_IRecv            23252                2841864.
 MP_Recv               360                 655007.
 -------------------------------------------------------------------------------


 -------------------------------------------------------------------------------
 -                                                                             -
 -                           R E F E R E N C E S                               -
 -                                                                             -
 -------------------------------------------------------------------------------
 
 CP2K version 2023.1, the CP2K developers group (2023).
 CP2K is freely available from https://www.cp2k.org/ .

 Kuehne,Thomas D.; Iannuzzi,Marcella; Del Ben,Mauro;
 Rybkin,Vladimir V.; Seewald,Patrick; Stein,Frederick; Laino,Teodoro;
 Khaliullin,Rustam Z.; Schuett,Ole; Schiffmann,Florian; Golze,Dorothea;
 Wilhelm,Jan; Chulkov,Sergey; Bani-Hashemian,Mohammad Hossein;
 Weber,Valery; Borstnik,Urban; Taillefumier,Mathieu;
 Jakobovits,Alice Shoshana; Lazzaro,Alfio; Pabst,Hans; Mueller,Tiziano;
 Schade,Robert; Guidon,Manuel; Andermatt,Samuel; Holmberg,Nico;
 Schenter,Gregory K.; Hehn,Anna; Bussy,Augustin; Belleflamme,Fabian;
 Tabacchi,Gloria; Gloess,Andreas; Lass,Michael; Bethune,Iain;
 Mundy,Christopher J.; Plessl,Christian; Watkins,Matt;
 VandeVondele,Joost; Krack,Matthias; Hutter,Juerg. 
 The Journal of Chemical Physics, 152 (19), (2020). 
 CP2K: An electronic structure and molecular dynamics software package -
 Quickstep: Efficient and accurate electronic structure calculations.
 https://doi.org/10.1063/5.0007045

 Goerigk, Lars; Hansen, Andreas; Bauer, Christoph; Ehrlich, Stephan;
 Najibi, Asim; Grimme, Stefan. , 19 (48), (2017). 
 A look at the density functional theory zoo with the advanced GMTKN55 database
 for general main group thermochemistry, kinetics and noncovalent interactions.
 https://doi.org/10.1039/C7CP04913G

 Schuett, Ole; Messmer, Peter; Hutter, Juerg; VandeVondele, Joost. 
 Electronic Structure Calculations on Graphics Processing Units, John
 Wiley & Sons, Ltd, 173-190 (2016). 
 GPU-Accelerated Sparse Matrix-Matrix Multiplication for
 Linear Scaling Density Functional Theory.
 https://doi.org/10.1002/9781118670712.ch8

 Borstnik, U; VandeVondele, J; Weber, V; Hutter, J. 
 PARALLEL COMPUTING, 40 (5-6), 47-58 (2014). 
 Sparse matrix multiplication: The distributed block-compressed sparse
 row library.
 https://doi.org/10.1016/j.parco.2014.03.012

 Hutter, J; Iannuzzi, M; Schiffmann, F; VandeVondele, J. 
 WIREs Comput Mol Sci., 4 (1), 15-25 (2014). 
 CP2K: atomistic simulations of condensed matter systems.
 https://doi.org/10.1002/wcms.1159

 Marek, A; Blum, V; Johanni, R; Havu, V; Lang, B; Auckenthaler, T;
 Heinecke, A; Bungartz, H; Lederer, H. 
 Journal of Physics: Condensed Matter, 26 (21), (2014). 
 The ELPA library: scalable parallel eigenvalue solutions for
 electronic structure
 theory and computational science.
 https://doi.org/10.1088/0953-8984/26/21/213201

 Grimme, S; Ehrlich, S; Goerigk, L. 
 JOURNAL OF COMPUTATIONAL CHEMISTRY, 32, 1456 (2011). 
 Effect of the damping function in dispersion corrected density functional theory.
 https://doi.org/10.1002/jcc.21759

 Grimme, S; Antony, J; Ehrlich, S; Krieg, H. 
 JOURNAL OF CHEMICAL PHYSICS, 132 (15), 154104 (2010). 
 A consistent and accurate ab initio parametrization of density
 functional dispersion correction (DFT-D) for the 94 elements H-Pu.
 https://doi.org/10.1063/1.3382344

 VandeVondele, J; Hutter, J. 
 JOURNAL OF CHEMICAL PHYSICS, 127 (11), 114105 (2007). 
 Gaussian basis sets for accurate calculations on molecular systems in
 gas and condensed phases.
 https://doi.org/10.1063/1.2770708

 Krack, M. 
 THEORETICAL CHEMISTRY ACCOUNTS, 114 (1-3), 145-152 (2005). 
 Pseudopotentials for H to Kr optimized for gradient-corrected
 exchange-correlation functionals.
 https://doi.org/10.1007/s00214-005-0655-y

 VandeVondele, J; Krack, M; Mohamed, F; Parrinello, M; Chassaing, T;
 Hutter, J. COMPUTER PHYSICS COMMUNICATIONS, 167 (2), 103-128 (2005). 
 QUICKSTEP: Fast and accurate density functional calculations using a
 mixed Gaussian and plane waves approach.
 https://doi.org/10.1016/j.cpc.2004.12.014

 Frigo, M; Johnson, SG. 
 PROCEEDINGS OF THE IEEE, 93 (2), 216-231 (2005). 
 The design and implementation of FFTW3.
 https://doi.org/10.1109/JPROC.2004.840301

 Hartwigsen, C; Goedecker, S; Hutter, J. 
 PHYSICAL REVIEW B, 58 (7), 3641-3662 (1998). 
 Relativistic separable dual-space Gaussian pseudopotentials from H to Rn.
 https://doi.org/10.1103/PhysRevB.58.3641

 Lippert, G; Hutter, J; Parrinello, M. 
 MOLECULAR PHYSICS, 92 (3), 477-487 (1997). 
 A hybrid Gaussian and plane wave density functional scheme.
 https://doi.org/10.1080/002689797170220

 Perdew, JP; Burke, K; Ernzerhof, M. 
 PHYSICAL REVIEW LETTERS, 77 (18), 3865-3868 (1996). 
 Generalized gradient approximation made simple.
 https://doi.org/10.1103/PhysRevLett.77.3865

 Goedecker, S; Teter, M; Hutter, J. 
 PHYSICAL REVIEW B, 54 (3), 1703-1710 (1996). 
 Separable dual-space Gaussian pseudopotentials.
 https://doi.org/10.1103/PhysRevB.54.1703


 -------------------------------------------------------------------------------
 -                                                                             -
 -                                T I M I N G                                  -
 -                                                                             -
 -------------------------------------------------------------------------------
 SUBROUTINE                       CALLS  ASD         SELF TIME        TOTAL TIME
                                MAXIMUM       AVERAGE  MAXIMUM  AVERAGE  MAXIMUM
 CP2K                                 1  1.0    0.060    0.077 9072.332 9072.333
 qs_energies                          5  2.0    0.001    0.001 9069.651 9069.651
 scf_env_do_scf                       5  3.0    0.002    0.004 9041.281 9041.981
 scf_env_do_scf_inner_loop          531  4.0    0.033    0.068 9041.279 9041.977
 qs_scf_new_mos                     531  5.0    0.018    0.020 3940.404 3941.559
 eigensolver                       1062  6.0    0.139    0.181 3858.349 3858.561
 qs_ks_update_qs_env                531  5.0    0.005    0.006 2393.905 2393.996
 rebuild_ks_matrix                  531  6.0    0.003    0.003 2391.762 2391.862
 qs_ks_build_kohn_sham_matrix       531  7.0    0.125    0.133 2391.759 2391.859
 cp_fm_diag_elpa                    756  7.0    0.011    0.012 2356.261 2356.701
 cp_fm_diag_elpa_base               756  8.0 2343.180 2347.425 2355.351 2355.355
 qs_rho_update_rho_low              536  5.0    0.007    0.008 2062.838 2062.989
 calculate_rho_elec                1072  6.0    3.258    3.388 2062.831 2062.981
 sum_up_and_integrate               531  8.0   11.473   12.487 1884.572 1884.764
 integrate_v_rspace                1062  9.0    0.071    0.082 1873.090 1873.942
 grid_collocate_task_list          1072  7.0 1580.232 1621.518 1580.232 1621.518
 grid_integrate_task_list          1062 10.0 1540.264 1564.044 1540.264 1564.044
 cp_fm_triangular_multiply         3186  7.0 1492.482 1495.539 1492.482 1495.539
 pw_transfer                      12252  9.0    1.589    1.685  739.356  757.088
 fft_wrap_pw1pw2                  11190 10.0    0.198    0.207  727.846  745.835
 fft_wrap_pw1pw2_150               4788 10.2   52.565   54.241  669.251  686.190
 gspace_mixing                      523  5.0    3.212    3.344  659.296  659.296
 fft3d_ps                         11190 12.0  314.495  337.142  513.872  539.836
 density_rs2pw                     1072  7.0    0.104    0.109  466.582  506.679
 broyden_mixing                     523  6.0  454.003  463.594  466.161  467.851
 qs_vxc_create                      531  8.0    0.020    0.023  390.746  395.203
 xc_vxc_pw_create                   531  9.0   25.555   27.515  390.726  395.180
 potential_pw2rs                   1062 10.0    0.303    0.322  301.689  302.601
 xc_rho_set_and_dset_create         531 10.0   27.597   33.715  276.105  288.228
 rs_pw_transfer                    8541  9.5    0.229    0.245  242.789  277.202
 xc_functional_eval                 531 11.0    0.019    0.022  180.746  189.376
 pbe_lsd_eval                       531 12.0  180.727  189.355  180.727  189.355
 -------------------------------------------------------------------------------

 The number of warnings for this run is : 7
 
 -------------------------------------------------------------------------------
  **** **** ******  **  PROGRAM ENDED AT                 2025-05-16 16:59:56.051
 ***** ** ***  *** **   PROGRAM RAN ON                                sebnode130
 **    ****   ******    PROGRAM RAN BY                                    luehrs
 ***** **    ** ** **   PROGRAM PROCESS ID                               1484523
  **** **  *******  **  PROGRAM STOPPED IN /home/luehrs/PhD/Sodium_batteries/Sod
                                           ium-graphene-interlayer/AB_Interlayer
                                           /Zig-Zag1_3.76A
