 DBCSR| CPU Multiplication driver                                           BLAS (U)
 DBCSR| Multrec recursion limit                                              512 (U)
 DBCSR| Multiplication stack size                                           1000 (D)
 DBCSR| Maximum elements for images                                    UNLIMITED (U)
 DBCSR| Multiplicative factor virtual images                                   1 (U)
 DBCSR| Use multiplication densification                                       T (D)
 DBCSR| Multiplication size stacks                                             3 (U)
 DBCSR| Use memory pool for CPU allocation                                     F (U)
 DBCSR| Number of 3D layers                                               SINGLE (U)
 DBCSR| Use MPI memory allocation                                              F (U)
 DBCSR| Use RMA algorithm                                                      F (U)
 DBCSR| Use Communication thread                                               T (U)
 DBCSR| Communication thread load                                             87 (D)
 DBCSR| MPI: My process id                                                     0
 DBCSR| MPI: Number of processes                                              16
 DBCSR| OMP: Current number of threads                                         1
 DBCSR| OMP: Max number of threads                                             1
 DBCSR| Split modifier for TAS multiplication algorithm                  1.0E+00 (U)


  **** **** ******  **  PROGRAM STARTED AT               2025-05-15 14:40:18.575
 ***** ** ***  *** **   PROGRAM STARTED ON                            sebnode130
 **    ****   ******    PROGRAM STARTED BY                                luehrs
 ***** **    ** ** **   PROGRAM PROCESS ID                               1479424
  **** **  *******  **  PROGRAM STARTED IN /home/luehrs/PhD/Sodium_batteries/Sod
                                           ium-graphene-interlayer/AB_Interlayer
                                           /Zig-Zag1_3.76A

 CP2K| version string:                                       CP2K version 2023.1
 CP2K| source code revision number:                                  git:b888bd8
 CP2K| cp2kflags: omp libint fftw3 libxc elpa parallel scalapack spglib         
 CP2K| is freely available from                            https://www.cp2k.org/
 CP2K| Program compiled at                          Tue Jan 10 19:52:03 UTC 2023
 CP2K| Program compiled on                                            x86-ubc-01
 CP2K| Program compiled for                                Linux-x86_64-gfortran
 CP2K| Data directory path                                       /usr/share/cp2k
 CP2K| Input file name                                         input.zig-zag.inp

 GLOBAL| Force Environment number                                              1
 GLOBAL| Basis set file name                                      ./BASIS_MOLOPT
 GLOBAL| Potential file name                                    ./GTH_POTENTIALS
 GLOBAL| MM Potential file name                                     MM_POTENTIAL
 GLOBAL| Coordinate file name                                       AB_3.76A.xyz
 GLOBAL| Method name                                                        CP2K
 GLOBAL| Project name                                                 AB_3.76A_1
 GLOBAL| Run type                                                           BSSE
 GLOBAL| FFT library                                                       FFTW3
 GLOBAL| Diagonalization library                                            ELPA
 GLOBAL| DGEMM library                                                      BLAS
 GLOBAL| Minimum number of eigenvectors for ELPA usage                        16
 GLOBAL| Orthonormality check for eigenvectors                          DISABLED
 GLOBAL| Matrix multiplication library                                 ScaLAPACK
 GLOBAL| All-to-all communication in single precision                          F
 GLOBAL| FFTs using library dependent lengths                                  F
 GLOBAL| Grid backend                                                       AUTO
 GLOBAL| Global print level                                                  LOW
 GLOBAL| MPI I/O enabled                                                       T
 GLOBAL| Total number of message passing processes                            16
 GLOBAL| Number of threads for this process                                    1
 GLOBAL| This output is from process                                           0
 GLOBAL| Stack size for threads created by OpenMP (OMP_STACKSIZE)        default
 GLOBAL| CPU model name                          AMD EPYC 7513 32-Core Processor

 MEMORY| system memory details [Kb]
 MEMORY|                        rank 0           min           max       average
 MEMORY| MemTotal            131832644     131832644     131832644     131832644
 MEMORY| MemFree              93443844      93443844      93443844      93443844
 MEMORY| Buffers                468876        468876        468876        468876
 MEMORY| Cached               10341324      10341320      10341324      10341320
 MEMORY| Slab                   818840        818840        818840        818840
 MEMORY| SReclaimable           176972        176972        176972        176972
 MEMORY| MemLikelyFree       104431016     104431012     104431016     104431012


 GENERATE|  Preliminary Number of Bonds generated:                             0
 GENERATE|  Achieved consistency in connectivity generation.

 *******************************************************************************
 *******************************************************************************
 **                                                                           **
 **     #####                         ##              ##                      **
 **    ##   ##            ##          ##              ##                      **
 **   ##     ##                       ##            ######                    **
 **   ##     ##  ##   ##  ##   #####  ##  ##   ####   ##    #####    #####    **
 **   ##     ##  ##   ##  ##  ##      ## ##   ##      ##   ##   ##  ##   ##   **
 **   ##  ## ##  ##   ##  ##  ##      ####     ###    ##   ######   ######    **
 **    ##  ###   ##   ##  ##  ##      ## ##      ##   ##   ##       ##        **
 **     #######   #####   ##   #####  ##  ##  ####    ##    #####   ##        **
 **           ##                                                    ##        **
 **                                                                           **
 **                                                ... make the atoms dance   **
 **                                                                           **
 **            Copyright (C) by CP2K developers group (2000-2022)             **
 **                      J. Chem. Phys. 152, 194103 (2020)                    **
 **                                                                           **
 *******************************************************************************


 TOTAL NUMBERS AND MAXIMUM NUMBERS

  Total number of            - Atomic kinds:                                   2
                             - Atoms:                                        225
                             - Shell sets:                                   225
                             - Shells:                                      1125
                             - Primitive Cartesian functions:               1127
                             - Cartesian basis functions:                   3145
                             - Spherical basis functions:                   2921

  Maximum angular momentum of- Orbital basis functions:                        2
                             - Local part of the GTH pseudopotential:          2
                             - Non-local part of the GTH pseudopotential:      1


 SCF PARAMETERS         Density guess:                                    ATOMIC
                        --------------------------------------------------------
                        max_scf:                                             100
                        max_scf_history:                                       0
                        max_diis:                                              4
                        --------------------------------------------------------
                        eps_scf:                                        3.00E-07
                        eps_scf_history:                                0.00E+00
                        eps_diis:                                       1.00E-01
                        eps_eigval:                                     1.00E-05
                        --------------------------------------------------------
                        level_shift [a.u.]:                             0.000000
                        added MOs                                       100  100
                        --------------------------------------------------------
                        Mixing method:                            BROYDEN_MIXING
                                                charge density mixing in g-space
                        --------------------------------------------------------
                        Smear method:                                FERMI_DIRAC
                        Electronic temperature [K]:                        300.0
                        Electronic temperature [a.u.]:                  9.50E-04
                        Accuracy threshold:                             1.00E-10
                        --------------------------------------------------------
                        Outer loop SCF in use 
                        No variables optimised in outer loop
                        eps_scf                                         1.00E-06
                        max_scf                                               30
                        DIIS optimization
                        DIIS buffer length                                     3
                        step_size                                       5.00E-01

 -------------------------------------------------------------------------------
 -                                                                             -
 -  BSSE CALCULATION         FRAGMENT CONF: 10        FRAGMENT SUBCONF: 10     -
 -                           CHARGE =     0           MULTIPLICITY =     0     -
 -                                                                             -
 -                 ATOM INDEX                              ATOM NAME           -
 -                 ----------                              ---------           -
 -                      1                                   C                  -
 -                      2                                   C                  -
 -                      3                                   C                  -
 -                      4                                   C                  -
 -                      5                                   C                  -
 -                      6                                   C                  -
 -                      7                                   C                  -
 -                      8                                   C                  -
 -                      9                                   C                  -
 -                     10                                   C                  -
 -                     11                                   C                  -
 -                     12                                   C                  -
 -                     13                                   C                  -
 -                     14                                   C                  -
 -                     15                                   C                  -
 -                     16                                   C                  -
 -                     17                                   C                  -
 -                     18                                   C                  -
 -                     19                                   C                  -
 -                     20                                   C                  -
 -                     21                                   C                  -
 -                     22                                   C                  -
 -                     23                                   C                  -
 -                     24                                   C                  -
 -                     25                                   C                  -
 -                     26                                   C                  -
 -                     27                                   C                  -
 -                     28                                   C                  -
 -                     29                                   C                  -
 -                     30                                   C                  -
 -                     31                                   C                  -
 -                     32                                   C                  -
 -                     33                                   C                  -
 -                     34                                   C                  -
 -                     35                                   C                  -
 -                     36                                   C                  -
 -                     37                                   C                  -
 -                     38                                   C                  -
 -                     39                                   C                  -
 -                     40                                   C                  -
 -                     41                                   C                  -
 -                     42                                   C                  -
 -                     43                                   C                  -
 -                     44                                   C                  -
 -                     45                                   C                  -
 -                     46                                   C                  -
 -                     47                                   C                  -
 -                     48                                   C                  -
 -                     49                                   C                  -
 -                     50                                   C                  -
 -                     51                                   C                  -
 -                     52                                   C                  -
 -                     53                                   C                  -
 -                     54                                   C                  -
 -                     55                                   C                  -
 -                     56                                   C                  -
 -                     57                                   C                  -
 -                     58                                   C                  -
 -                     59                                   C                  -
 -                     60                                   C                  -
 -                     61                                   C                  -
 -                     62                                   C                  -
 -                     63                                   C                  -
 -                     64                                   C                  -
 -                     65                                   C                  -
 -                     66                                   C                  -
 -                     67                                   C                  -
 -                     68                                   C                  -
 -                     69                                   C                  -
 -                     70                                   C                  -
 -                     71                                   C                  -
 -                     72                                   C                  -
 -                     73                                   C                  -
 -                     74                                   C                  -
 -                     75                                   C                  -
 -                     76                                   C                  -
 -                     77                                   C                  -
 -                     78                                   C                  -
 -                     79                                   C                  -
 -                     80                                   C                  -
 -                     81                                   C                  -
 -                     82                                   C                  -
 -                     83                                   C                  -
 -                     84                                   C                  -
 -                     85                                   C                  -
 -                     86                                   C                  -
 -                     87                                   C                  -
 -                     88                                   C                  -
 -                     89                                   C                  -
 -                     90                                   C                  -
 -                     91                                   C                  -
 -                     92                                   C                  -
 -                     93                                   C                  -
 -                     94                                   C                  -
 -                     95                                   C                  -
 -                     96                                   C                  -
 -                     97                                   C                  -
 -                     98                                   C                  -
 -                     99                                   C                  -
 -                    100                                   C                  -
 -                    101                                   C                  -
 -                    102                                   C                  -
 -                    103                                   C                  -
 -                    104                                   C                  -
 -                    105                                   C                  -
 -                    106                                   C                  -
 -                    107                                   C                  -
 -                    108                                   C                  -
 -                    109                                   C                  -
 -                    110                                   C                  -
 -                    111                                   C                  -
 -                    112                                   C                  -
 -                    113                                   C                  -
 -                    114                                   C                  -
 -                    115                                   C                  -
 -                    116                                   C                  -
 -                    117                                   C                  -
 -                    118                                   C                  -
 -                    119                                   C                  -
 -                    120                                   C                  -
 -                    121                                   C                  -
 -                    122                                   C                  -
 -                    123                                   C                  -
 -                    124                                   C                  -
 -                    125                                   C                  -
 -                    126                                   C                  -
 -                    127                                   C                  -
 -                    128                                   C                  -
 -                    129                                   C                  -
 -                    130                                   C                  -
 -                    131                                   C                  -
 -                    132                                   C                  -
 -                    133                                   C                  -
 -                    134                                   C                  -
 -                    135                                   C                  -
 -                    136                                   C                  -
 -                    137                                   C                  -
 -                    138                                   C                  -
 -                    139                                   C                  -
 -                    140                                   C                  -
 -                    141                                   C                  -
 -                    142                                   C                  -
 -                    143                                   C                  -
 -                    144                                   C                  -
 -                    145                                   C                  -
 -                    146                                   C                  -
 -                    147                                   C                  -
 -                    148                                   C                  -
 -                    149                                   C                  -
 -                    150                                   C                  -
 -                    151                                   C                  -
 -                    152                                   C                  -
 -                    153                                   C                  -
 -                    154                                   C                  -
 -                    155                                   C                  -
 -                    156                                   C                  -
 -                    157                                   C                  -
 -                    158                                   C                  -
 -                    159                                   C                  -
 -                    160                                   C                  -
 -                    161                                   C                  -
 -                    162                                   C                  -
 -                    163                                   C                  -
 -                    164                                   C                  -
 -                    165                                   C                  -
 -                    166                                   C                  -
 -                    167                                   C                  -
 -                    168                                   C                  -
 -                    169                                   C                  -
 -                    170                                   C                  -
 -                    171                                   C                  -
 -                    172                                   C                  -
 -                    173                                   C                  -
 -                    174                                   C                  -
 -                    175                                   C                  -
 -                    176                                   C                  -
 -                    177                                   C                  -
 -                    178                                   C                  -
 -                    179                                   C                  -
 -                    180                                   C                  -
 -                    181                                   C                  -
 -                    182                                   C                  -
 -                    183                                   C                  -
 -                    184                                   C                  -
 -                    185                                   C                  -
 -                    186                                   C                  -
 -                    187                                   C                  -
 -                    188                                   C                  -
 -                    189                                   C                  -
 -                    190                                   C                  -
 -                    191                                   C                  -
 -                    192                                   C                  -
 -                    193                                   C                  -
 -                    194                                   C                  -
 -                    195                                   C                  -
 -                    196                                   C                  -
 -                    197                                   C                  -
 -                    198                                   C                  -
 -                    199                                   C                  -
 -                    200                                   C                  -
 -                    201                                   C                  -
 -                    202                                   C                  -
 -                    203                                   C                  -
 -                    204                                   C                  -
 -                    205                                   C                  -
 -                    206                                   C                  -
 -                    207                                   C                  -
 -                    208                                   C                  -
 -                    209                                   C                  -
 -                    210                                   C                  -
 -                    211                                   C                  -
 -                    212                                   C                  -
 -                    213                                   C                  -
 -                    214                                   C                  -
 -                    215                                   C                  -
 -                    216                                   C                  -
 -                    217                                   C                  -
 -                    218                                   C                  -
 -                    219                                   C                  -
 -                    220                                   C                  -
 -                    221                                   C                  -
 -                    222                                   C                  -
 -                    223                                   C                  -
 -                    224                                   C                  -
 -------------------------------------------------------------------------------

 *******************************************************************************
 *******************************************************************************
 **                                                                           **
 **     #####                         ##              ##                      **
 **    ##   ##            ##          ##              ##                      **
 **   ##     ##                       ##            ######                    **
 **   ##     ##  ##   ##  ##   #####  ##  ##   ####   ##    #####    #####    **
 **   ##     ##  ##   ##  ##  ##      ## ##   ##      ##   ##   ##  ##   ##   **
 **   ##  ## ##  ##   ##  ##  ##      ####     ###    ##   ######   ######    **
 **    ##  ###   ##   ##  ##  ##      ## ##      ##   ##   ##       ##        **
 **     #######   #####   ##   #####  ##  ##  ####    ##    #####   ##        **
 **           ##                                                    ##        **
 **                                                                           **
 **                                                ... make the atoms dance   **
 **                                                                           **
 **            Copyright (C) by CP2K developers group (2000-2022)             **
 **                      J. Chem. Phys. 152, 194103 (2020)                    **
 **                                                                           **
 *******************************************************************************


 TOTAL NUMBERS AND MAXIMUM NUMBERS

  Total number of            - Atomic kinds:                                   1
                             - Atoms:                                        224
                             - Shell sets:                                   224
                             - Shells:                                      1120
                             - Primitive Cartesian functions:               1120
                             - Cartesian basis functions:                   3136
                             - Spherical basis functions:                   2912

  Maximum angular momentum of- Orbital basis functions:                        2
                             - Local part of the GTH pseudopotential:          2
                             - Non-local part of the GTH pseudopotential:      0


 SCF PARAMETERS         Density guess:                                    ATOMIC
                        --------------------------------------------------------
                        max_scf:                                             100
                        max_scf_history:                                       0
                        max_diis:                                              4
                        --------------------------------------------------------
                        eps_scf:                                        3.00E-07
                        eps_scf_history:                                0.00E+00
                        eps_diis:                                       1.00E-01
                        eps_eigval:                                     1.00E-05
                        --------------------------------------------------------
                        level_shift [a.u.]:                             0.000000
                        added MOs                                       100  100
                        --------------------------------------------------------
                        Mixing method:                            BROYDEN_MIXING
                                                charge density mixing in g-space
                        --------------------------------------------------------
                        Smear method:                                FERMI_DIRAC
                        Electronic temperature [K]:                        300.0
                        Electronic temperature [a.u.]:                  9.50E-04
                        Accuracy threshold:                             1.00E-10
                        --------------------------------------------------------
                        Outer loop SCF in use 
                        No variables optimised in outer loop
                        eps_scf                                         1.00E-06
                        max_scf                                               30
                        DIIS optimization
                        DIIS buffer length                                     3
                        step_size                                       5.00E-01

 Spin 1

 Number of electrons:                                                        448
 Number of occupied orbitals:                                                448
 Number of molecular orbitals:                                               548

 Spin 2

 Number of electrons:                                                        448
 Number of occupied orbitals:                                                448
 Number of molecular orbitals:                                               548

 Number of orbital functions:                                               2912
 Number of independent orbital functions:                                   2912

 Extrapolation method: initial_guess


 SCF WAVEFUNCTION OPTIMIZATION

  Step     Update method      Time    Convergence         Total energy    Change
  ------------------------------------------------------------------------------
     1 NoMix/Diag. 0.10E+00   15.6     0.45135520     -1259.9816871458 -1.26E+03
     2 Broy./Diag. 0.10E+00   20.2     0.00307421     -1202.8636575744  5.71E+01
     3 Broy./Diag. 0.10E+00   20.4     7.54364756     -1247.5607608464 -4.47E+01
     4 Broy./Diag. 0.10E+00   20.4     7.54358757     -1196.1124595416  5.14E+01
     5 Broy./Diag. 0.10E+00   20.4     7.58366737     -1264.7628019980 -6.87E+01
     6 Broy./Diag. 0.10E+00   20.4     7.58366487     -1184.2879948984  8.05E+01
     7 Broy./Diag. 0.10E+00   20.5     7.59993960     -1265.5646027804 -8.13E+01
     8 Broy./Diag. 0.10E+00   20.6     7.59993768     -1100.1395328860  1.65E+02
     9 Broy./Diag. 0.10E+00   20.7     7.59451898     -1265.6909436089 -1.66E+02
    10 Broy./Diag. 0.10E+00   20.9     7.59451641     -1130.7116574602  1.35E+02
    11 Broy./Diag. 0.10E+00   20.9     7.59185378     -1266.1647993104 -1.35E+02
    12 Broy./Diag. 0.10E+00   20.8     7.59185026     -1219.9724660485  4.62E+01
    13 Broy./Diag. 0.10E+00   20.8     7.63061048     -1266.3199524523 -4.63E+01
    14 Broy./Diag. 0.10E+00   20.8     7.63060867     -1094.2852019342  1.72E+02
    15 Broy./Diag. 0.10E+00   21.0     5.73058181     -1249.2279078026 -1.55E+02
    16 Broy./Diag. 0.10E+00   20.9     7.64974841     -1266.6473494425 -1.74E+01
    17 Broy./Diag. 0.10E+00   20.9     7.64972472     -1148.9921171895  1.18E+02
    18 Broy./Diag. 0.10E+00   25.8     7.62632587     -1265.8937177302 -1.17E+02
    19 Broy./Diag. 0.10E+00   46.5     7.63175708     -1171.3050263010  9.46E+01
    20 Broy./Diag. 0.10E+00   46.1     7.66699660     -1266.8332845517 -9.55E+01
    21 Broy./Diag. 0.10E+00   47.0     7.66699513     -1163.1879741251  1.04E+02
    22 Broy./Diag. 0.10E+00   47.4     7.65309541     -1266.9737815601 -1.04E+02
    23 Broy./Diag. 0.10E+00   46.8     7.65303922     -1175.1625680224  9.18E+01
    24 Broy./Diag. 0.10E+00   46.8     7.63734900     -1239.3539691343 -6.42E+01
    25 Broy./Diag. 0.10E+00   46.9     7.33242303     -1267.1329704440 -2.78E+01
    26 Broy./Diag. 0.10E+00   47.9     7.33242033     -1245.1635281995  2.20E+01
    27 Broy./Diag. 0.10E+00   20.9     6.73608064     -1267.1577748488 -2.20E+01
    28 Broy./Diag. 0.10E+00   21.0     6.73607860     -1246.5893981767  2.06E+01
    29 Broy./Diag. 0.10E+00   21.4     0.10815010     -1267.2093917837 -2.06E+01
    30 Broy./Diag. 0.10E+00   33.0     0.10263670     -1267.1978127707  1.16E-02
    31 Broy./Diag. 0.10E+00   46.7     7.68902419     -1267.3003310163 -1.03E-01
    32 Broy./Diag. 0.10E+00   46.6     7.68902147     -1221.2137960287  4.61E+01
    33 Broy./Diag. 0.10E+00   46.8     7.61478864     -1267.2328129652 -4.60E+01
    34 Broy./Diag. 0.10E+00   46.9     7.61478417     -1244.9027341318  2.23E+01
    35 Broy./Diag. 0.10E+00   47.9     0.05886364     -1267.3407886590 -2.24E+01
    36 Broy./Diag. 0.10E+00   46.1     0.05419610     -1267.4699953783 -1.29E-01
    37 Broy./Diag. 0.10E+00   46.1     0.00743751     -1267.6031534054 -1.33E-01
    38 Broy./Diag. 0.10E+00   47.9     0.00734066     -1267.5878393123  1.53E-02
    39 Broy./Diag. 0.10E+00   48.4     0.00072838     -1268.0583115215 -4.70E-01
    40 Broy./Diag. 0.10E+00   47.4     0.00112253     -1268.3142699460 -2.56E-01
    41 Broy./Diag. 0.10E+00   48.1     0.00242583     -1268.5723960621 -2.58E-01
    42 Broy./Diag. 0.10E+00   47.9     0.00265881     -1268.7811165278 -2.09E-01
    43 Broy./Diag. 0.10E+00   47.8     0.00310949     -1268.8386987793 -5.76E-02
    44 Broy./Diag. 0.10E+00   48.2     0.00206488     -1268.9447463787 -1.06E-01
    45 Broy./Diag. 0.10E+00   48.8     0.00279023     -1269.0196825728 -7.49E-02
    46 Broy./Diag. 0.10E+00   51.3     0.00209099     -1269.0304532733 -1.08E-02
    47 Broy./Diag. 0.10E+00   47.7     0.00410821     -1269.0309422356 -4.89E-04
    48 Broy./Diag. 0.10E+00   48.1     0.00327926     -1269.0378603964 -6.92E-03
    49 Broy./Diag. 0.10E+00   49.7     0.00180129     -1269.0692603450 -3.14E-02
    50 Broy./Diag. 0.10E+00   47.2     0.00046733     -1269.0883356619 -1.91E-02
    51 Broy./Diag. 0.10E+00   48.0     0.00080801     -1269.0879235867  4.12E-04
    52 Broy./Diag. 0.10E+00   47.3     0.00012514     -1269.0959404799 -8.02E-03
    53 Broy./Diag. 0.10E+00   49.2     0.00005146     -1269.1100084665 -1.41E-02
    54 Broy./Diag. 0.10E+00   48.8     0.00013551     -1269.1245836401 -1.46E-02
    55 Broy./Diag. 0.10E+00   52.1     0.00005540     -1269.1308810530 -6.30E-03
    56 Broy./Diag. 0.10E+00   49.8     0.00008677     -1269.1208013872  1.01E-02
    57 Broy./Diag. 0.10E+00   47.5     0.00010370     -1269.1122148370  8.59E-03
    58 Broy./Diag. 0.10E+00   47.4     0.00006910     -1269.1160425298 -3.83E-03
    59 Broy./Diag. 0.10E+00   47.9     0.00006216     -1269.1189001477 -2.86E-03
    60 Broy./Diag. 0.10E+00   49.0     0.00005971     -1269.1228992046 -4.00E-03
    61 Broy./Diag. 0.10E+00   49.1     0.00003541     -1269.1234095174 -5.10E-04
    62 Broy./Diag. 0.10E+00   49.7     0.00013880     -1269.1257376051 -2.33E-03
    63 Broy./Diag. 0.10E+00   50.0     0.00001249     -1269.1306422111 -4.90E-03
    64 Broy./Diag. 0.10E+00   49.1     0.00003220     -1269.1312099311 -5.68E-04
    65 Broy./Diag. 0.10E+00   48.8     0.00003592     -1269.1321160003 -9.06E-04
    66 Broy./Diag. 0.10E+00   47.1     0.00000327     -1269.1330304023 -9.14E-04
    67 Broy./Diag. 0.10E+00   49.6     0.00001670     -1269.1333734944 -3.43E-04
    68 Broy./Diag. 0.10E+00   47.2     0.00000520     -1269.1334206515 -4.72E-05
    69 Broy./Diag. 0.10E+00   45.5     0.00000468     -1269.1329619765  4.59E-04
    70 Broy./Diag. 0.10E+00   45.7     0.00000612     -1269.1321167087  8.45E-04
    71 Broy./Diag. 0.10E+00   46.3     0.00000502     -1269.1313963454  7.20E-04
    72 Broy./Diag. 0.10E+00   47.1     0.00000912     -1269.1312871946  1.09E-04
    73 Broy./Diag. 0.10E+00   50.2     0.00000286     -1269.1316668669 -3.80E-04
    74 Broy./Diag. 0.10E+00   49.9     0.00000763     -1269.1318087825 -1.42E-04
    75 Broy./Diag. 0.10E+00   49.0     0.00000794     -1269.1318322517 -2.35E-05
    76 Broy./Diag. 0.10E+00   48.2     0.00000063     -1269.1318178628  1.44E-05
    77 Broy./Diag. 0.10E+00   48.0     0.00000184     -1269.1320175257 -2.00E-04
    78 Broy./Diag. 0.10E+00   47.8     0.00000152     -1269.1321983839 -1.81E-04
    79 Broy./Diag. 0.10E+00   47.9     0.00000175     -1269.1321821682  1.62E-05
    80 Broy./Diag. 0.10E+00   48.9     0.00000088     -1269.1321258769  5.63E-05
    81 Broy./Diag. 0.10E+00   52.6     0.00000072     -1269.1320442348  8.16E-05
    82 Broy./Diag. 0.10E+00   47.7     0.00000074     -1269.1319689080  7.53E-05
    83 Broy./Diag. 0.10E+00   51.6     0.00000064     -1269.1319437317  2.52E-05
    84 Broy./Diag. 0.10E+00   59.2     0.00000081     -1269.1319897718 -4.60E-05
    85 Broy./Diag. 0.10E+00   52.0     0.00000046     -1269.1320510103 -6.12E-05
    86 Broy./Diag. 0.10E+00   48.6     0.00000086     -1269.1320797600 -2.87E-05
    87 Broy./Diag. 0.10E+00   48.6     0.00000135     -1269.1320784597  1.30E-06
    88 Broy./Diag. 0.10E+00   45.6     0.00000040     -1269.1320817042 -3.24E-06
    89 Broy./Diag. 0.10E+00   46.2     0.00000025     -1269.1321156805 -3.40E-05

  *** SCF run converged in    89 steps ***


  Electronic density on regular grids:       -895.9999999996        0.0000000004
  Core density on regular grids:              895.9999999992       -0.0000000008
  Total charge density on r-space grids:       -0.0000000004
  Total charge density g-space grids:          -0.0000000004

  Overlap energy of the core charge distribution:               0.00004137936484
  Self energy of the core charge distribution:              -2987.04177559540722
  Core Hamiltonian energy:                                    941.20688616484381
  Hartree energy:                                            1162.69621782255422
  Exchange-correlation energy:                               -385.21114899270339
  Dispersion energy:                                           -0.78233645894050
  Electronic entropic energy:                                  -0.00000000023112
  Fermi energy:                                                -0.06446335713657

  Total energy:                                             -1269.13211568051906

  outer SCF iter =    1 RMS gradient =   0.25E-06 energy =      -1269.1321156805
  outer SCF loop converged in   1 iterations or   89 steps


  Integrated absolute spin density  :                               0.0000000000
  WARNING: S**2 computation does not yet treat fractional occupied orbitals

 *** WARNING in qs_loc_utils.F:1500 :: User requested the calculation of ***
 *** the localized wavefunction but the section LOCALIZE was not         ***
 *** specified. Localization will not be performed!                      ***


 -------------------------------------------------------------------------------
 -                                                                             -
 -  BSSE CALCULATION         FRAGMENT CONF: 01        FRAGMENT SUBCONF: 01     -
 -                           CHARGE =     0           MULTIPLICITY =     0     -
 -                                                                             -
 -                 ATOM INDEX                              ATOM NAME           -
 -                 ----------                              ---------           -
 -                    225                                   Na                 -
 -------------------------------------------------------------------------------

 *******************************************************************************
 *******************************************************************************
 **                                                                           **
 **     #####                         ##              ##                      **
 **    ##   ##            ##          ##              ##                      **
 **   ##     ##                       ##            ######                    **
 **   ##     ##  ##   ##  ##   #####  ##  ##   ####   ##    #####    #####    **
 **   ##     ##  ##   ##  ##  ##      ## ##   ##      ##   ##   ##  ##   ##   **
 **   ##  ## ##  ##   ##  ##  ##      ####     ###    ##   ######   ######    **
 **    ##  ###   ##   ##  ##  ##      ## ##      ##   ##   ##       ##        **
 **     #######   #####   ##   #####  ##  ##  ####    ##    #####   ##        **
 **           ##                                                    ##        **
 **                                                                           **
 **                                                ... make the atoms dance   **
 **                                                                           **
 **            Copyright (C) by CP2K developers group (2000-2022)             **
 **                      J. Chem. Phys. 152, 194103 (2020)                    **
 **                                                                           **
 *******************************************************************************

 *** WARNING in qs_environment.F:1470 :: More ADDED_MOs requested for beta ***
 *** spin than available.                                                  ***


 *** WARNING in qs_environment.F:1486 :: More added MOs requested than     ***
 *** available. The full set of unoccupied MOs will be used. Use           ***
 *** 'ADDED_MOS -1' to always use all available MOs and to get rid of this ***
 *** warning.                                                              ***



 TOTAL NUMBERS AND MAXIMUM NUMBERS

  Total number of            - Atomic kinds:                                   1
                             - Atoms:                                          1
                             - Shell sets:                                     1
                             - Shells:                                         5
                             - Primitive Cartesian functions:                  7
                             - Cartesian basis functions:                      9
                             - Spherical basis functions:                      9

  Maximum angular momentum of- Orbital basis functions:                        1
                             - Local part of the GTH pseudopotential:          2
                             - Non-local part of the GTH pseudopotential:      1


 SCF PARAMETERS         Density guess:                                    ATOMIC
                        --------------------------------------------------------
                        max_scf:                                             100
                        max_scf_history:                                       0
                        max_diis:                                              4
                        --------------------------------------------------------
                        eps_scf:                                        3.00E-07
                        eps_scf_history:                                0.00E+00
                        eps_diis:                                       1.00E-01
                        eps_eigval:                                     1.00E-05
                        --------------------------------------------------------
                        level_shift [a.u.]:                             0.000000
                        added MOs                                         4    5
                        --------------------------------------------------------
                        Mixing method:                            BROYDEN_MIXING
                                                charge density mixing in g-space
                        --------------------------------------------------------
                        Smear method:                                FERMI_DIRAC
                        Electronic temperature [K]:                        300.0
                        Electronic temperature [a.u.]:                  9.50E-04
                        Accuracy threshold:                             1.00E-10
                        --------------------------------------------------------
                        Outer loop SCF in use 
                        No variables optimised in outer loop
                        eps_scf                                         1.00E-06
                        max_scf                                               30
                        DIIS optimization
                        DIIS buffer length                                     3
                        step_size                                       5.00E-01

 Spin 1

 Number of electrons:                                                          5
 Number of occupied orbitals:                                                  5
 Number of molecular orbitals:                                                 9

 Spin 2

 Number of electrons:                                                          4
 Number of occupied orbitals:                                                  4
 Number of molecular orbitals:                                                 9

 Number of orbital functions:                                                  9
 Number of independent orbital functions:                                      9

 Extrapolation method: initial_guess


 SCF WAVEFUNCTION OPTIMIZATION

  Step     Update method      Time    Convergence         Total energy    Change
  ------------------------------------------------------------------------------
     1 NoMix/Diag. 0.10E+00    1.9     0.36442455       -47.1688362971 -4.72E+01
     2 Broy./Diag. 0.10E+00    3.8     0.01252324       -47.1412549444  2.76E-02
     3 Broy./Diag. 0.10E+00    4.3     0.06978254       -47.1650664905 -2.38E-02
     4 Broy./Diag. 0.10E+00    4.5     0.00122366       -47.1489070324  1.62E-02
     5 Broy./Diag. 0.10E+00    4.3     0.00324077       -47.1595454451 -1.06E-02
     6 Broy./Diag. 0.10E+00    4.4     0.00080378       -47.1577134172  1.83E-03
     7 Broy./Diag. 0.10E+00    4.4     0.01143500       -47.1569606580  7.53E-04
     8 Broy./Diag. 0.10E+00    4.7     0.00207626       -47.1654796204 -8.52E-03
     9 Broy./Diag. 0.10E+00    4.9     0.00326518       -47.1654854312 -5.81E-06
    10 Broy./Diag. 0.10E+00    6.2     0.00335144       -47.1610446029  4.44E-03
    11 Broy./Diag. 0.10E+00    4.8     0.00315110       -47.1647108418 -3.67E-03
    12 Broy./Diag. 0.10E+00    4.7     0.00353380       -47.1606547114  4.06E-03
    13 Broy./Diag. 0.10E+00    4.7     0.00109103       -47.1653307541 -4.68E-03
    14 Broy./Diag. 0.10E+00    4.7     0.00096850       -47.1661501896 -8.19E-04
    15 Broy./Diag. 0.10E+00    5.0     0.00035588       -47.1625223447  3.63E-03
    16 Broy./Diag. 0.10E+00    5.1     0.00046808       -47.1635867311 -1.06E-03
    17 Broy./Diag. 0.10E+00    5.0     0.00033825       -47.1630900938  4.97E-04
    18 Broy./Diag. 0.10E+00    5.0     0.00007867       -47.1660237411 -2.93E-03
    19 Broy./Diag. 0.10E+00    4.9     0.00018024       -47.1592630855  6.76E-03
    20 Broy./Diag. 0.10E+00    5.1     0.00004406       -47.1564862350  2.78E-03
    21 Broy./Diag. 0.10E+00    6.5     0.00005275       -47.1563844916  1.02E-04
    22 Broy./Diag. 0.10E+00    5.2     0.00006322       -47.1578190339 -1.43E-03
    23 Broy./Diag. 0.10E+00    4.7     0.00022671       -47.1561741824  1.64E-03
    24 Broy./Diag. 0.10E+00    4.9     0.00022347       -47.1593040550 -3.13E-03
    25 Broy./Diag. 0.10E+00    4.8     0.00017204       -47.1641229853 -4.82E-03
    26 Broy./Diag. 0.10E+00    4.6     0.00004390       -47.1624661821  1.66E-03
    27 Broy./Diag. 0.10E+00    4.7     0.00003382       -47.1618576065  6.09E-04
    28 Broy./Diag. 0.10E+00    4.7     0.00004693       -47.1612021808  6.55E-04
    29 Broy./Diag. 0.10E+00    4.8     0.00007000       -47.1615625345 -3.60E-04
    30 Broy./Diag. 0.10E+00    4.9     0.00003672       -47.1602932108  1.27E-03
    31 Broy./Diag. 0.10E+00    5.1     0.00002292       -47.1594911669  8.02E-04
    32 Broy./Diag. 0.10E+00    5.2     0.00008728       -47.1599663677 -4.75E-04
    33 Broy./Diag. 0.10E+00    6.6     0.00003994       -47.1597770907  1.89E-04
    34 Broy./Diag. 0.10E+00    4.7     0.00002537       -47.1594336848  3.43E-04
    35 Broy./Diag. 0.10E+00    4.8     0.00001167       -47.1597711397 -3.37E-04
    36 Broy./Diag. 0.10E+00    4.8     0.00001674       -47.1597592554  1.19E-05
    37 Broy./Diag. 0.10E+00    4.5     0.00000789       -47.1597666774 -7.42E-06
    38 Broy./Diag. 0.10E+00    5.0     0.00006309       -47.1595073452  2.59E-04
    39 Broy./Diag. 0.10E+00    4.8     0.00001965       -47.1594476247  5.97E-05
    40 Broy./Diag. 0.10E+00    4.7     0.00000355       -47.1595582275 -1.11E-04
    41 Broy./Diag. 0.10E+00    4.7     0.00000567       -47.1595924542 -3.42E-05
    42 Broy./Diag. 0.10E+00    5.1     0.00001547       -47.1595251082  6.73E-05
    43 Broy./Diag. 0.10E+00    5.1     0.00000244       -47.1595346340 -9.53E-06
    44 Broy./Diag. 0.10E+00    5.6     0.00000996       -47.1595298774  4.76E-06
    45 Broy./Diag. 0.10E+00    5.3     0.00000512       -47.1594104489  1.19E-04
    46 Broy./Diag. 0.10E+00    5.1     0.00000290       -47.1593645289  4.59E-05
    47 Broy./Diag. 0.10E+00    4.6     0.00000211       -47.1593893836 -2.49E-05
    48 Broy./Diag. 0.10E+00    4.9     0.00000161       -47.1594506837 -6.13E-05
    49 Broy./Diag. 0.10E+00    5.0     0.00000095       -47.1594570319 -6.35E-06
    50 Broy./Diag. 0.10E+00    4.7     0.00000522       -47.1594674187 -1.04E-05
    51 Broy./Diag. 0.10E+00    4.7     0.00000252       -47.1594307072  3.67E-05
    52 Broy./Diag. 0.10E+00    4.7     0.00000423       -47.1594242074  6.50E-06
    53 Broy./Diag. 0.10E+00    4.7     0.00000510       -47.1594381654 -1.40E-05
    54 Broy./Diag. 0.10E+00    4.8     0.00000082       -47.1594638702 -2.57E-05
    55 Broy./Diag. 0.10E+00    5.1     0.00000097       -47.1594433882  2.05E-05
    56 Broy./Diag. 0.10E+00    6.0     0.00000198       -47.1594245370  1.89E-05
    57 Broy./Diag. 0.10E+00    4.6     0.00000253       -47.1594360075 -1.15E-05
    58 Broy./Diag. 0.10E+00    4.8     0.00000016       -47.1594460968 -1.01E-05

  *** SCF run converged in    58 steps ***


  Electronic density on regular grids:         -9.0001354287       -0.0001354287
  Core density on regular grids:                9.0000000000       -0.0000000000
  Total charge density on r-space grids:       -0.0001354287
  Total charge density g-space grids:          -0.0001354287

  Overlap energy of the core charge distribution:               0.00000000000000
  Self energy of the core charge distribution:                -96.60649019442629
  Core Hamiltonian energy:                                     29.74710625431932
  Hartree energy:                                              26.74375802029271
  Exchange-correlation energy:                                 -7.04381699794608
  Dispersion energy:                                           -0.00000317792349
  Electronic entropic energy:                                  -0.00000000109415
  Fermi energy:                                                -0.08404885402422

  Total energy:                                               -47.15944609678370

  outer SCF iter =    1 RMS gradient =   0.16E-06 energy =        -47.1594460968
  outer SCF loop converged in   1 iterations or   58 steps


  Integrated absolute spin density  :                               1.0000143330
  WARNING: S**2 computation does not yet treat fractional occupied orbitals

 *** WARNING in qs_loc_utils.F:1500 :: User requested the calculation of ***
 *** the localized wavefunction but the section LOCALIZE was not         ***
 *** specified. Localization will not be performed!                      ***


 -------------------------------------------------------------------------------
 -                                                                             -
 -  BSSE CALCULATION         FRAGMENT CONF: 11        FRAGMENT SUBCONF: 10     -
 -                           CHARGE =     0           MULTIPLICITY =     0     -
 -                                                                             -
 -                 ATOM INDEX                              ATOM NAME           -
 -                 ----------                              ---------           -
 -                      1                                   C                  -
 -                      2                                   C                  -
 -                      3                                   C                  -
 -                      4                                   C                  -
 -                      5                                   C                  -
 -                      6                                   C                  -
 -                      7                                   C                  -
 -                      8                                   C                  -
 -                      9                                   C                  -
 -                     10                                   C                  -
 -                     11                                   C                  -
 -                     12                                   C                  -
 -                     13                                   C                  -
 -                     14                                   C                  -
 -                     15                                   C                  -
 -                     16                                   C                  -
 -                     17                                   C                  -
 -                     18                                   C                  -
 -                     19                                   C                  -
 -                     20                                   C                  -
 -                     21                                   C                  -
 -                     22                                   C                  -
 -                     23                                   C                  -
 -                     24                                   C                  -
 -                     25                                   C                  -
 -                     26                                   C                  -
 -                     27                                   C                  -
 -                     28                                   C                  -
 -                     29                                   C                  -
 -                     30                                   C                  -
 -                     31                                   C                  -
 -                     32                                   C                  -
 -                     33                                   C                  -
 -                     34                                   C                  -
 -                     35                                   C                  -
 -                     36                                   C                  -
 -                     37                                   C                  -
 -                     38                                   C                  -
 -                     39                                   C                  -
 -                     40                                   C                  -
 -                     41                                   C                  -
 -                     42                                   C                  -
 -                     43                                   C                  -
 -                     44                                   C                  -
 -                     45                                   C                  -
 -                     46                                   C                  -
 -                     47                                   C                  -
 -                     48                                   C                  -
 -                     49                                   C                  -
 -                     50                                   C                  -
 -                     51                                   C                  -
 -                     52                                   C                  -
 -                     53                                   C                  -
 -                     54                                   C                  -
 -                     55                                   C                  -
 -                     56                                   C                  -
 -                     57                                   C                  -
 -                     58                                   C                  -
 -                     59                                   C                  -
 -                     60                                   C                  -
 -                     61                                   C                  -
 -                     62                                   C                  -
 -                     63                                   C                  -
 -                     64                                   C                  -
 -                     65                                   C                  -
 -                     66                                   C                  -
 -                     67                                   C                  -
 -                     68                                   C                  -
 -                     69                                   C                  -
 -                     70                                   C                  -
 -                     71                                   C                  -
 -                     72                                   C                  -
 -                     73                                   C                  -
 -                     74                                   C                  -
 -                     75                                   C                  -
 -                     76                                   C                  -
 -                     77                                   C                  -
 -                     78                                   C                  -
 -                     79                                   C                  -
 -                     80                                   C                  -
 -                     81                                   C                  -
 -                     82                                   C                  -
 -                     83                                   C                  -
 -                     84                                   C                  -
 -                     85                                   C                  -
 -                     86                                   C                  -
 -                     87                                   C                  -
 -                     88                                   C                  -
 -                     89                                   C                  -
 -                     90                                   C                  -
 -                     91                                   C                  -
 -                     92                                   C                  -
 -                     93                                   C                  -
 -                     94                                   C                  -
 -                     95                                   C                  -
 -                     96                                   C                  -
 -                     97                                   C                  -
 -                     98                                   C                  -
 -                     99                                   C                  -
 -                    100                                   C                  -
 -                    101                                   C                  -
 -                    102                                   C                  -
 -                    103                                   C                  -
 -                    104                                   C                  -
 -                    105                                   C                  -
 -                    106                                   C                  -
 -                    107                                   C                  -
 -                    108                                   C                  -
 -                    109                                   C                  -
 -                    110                                   C                  -
 -                    111                                   C                  -
 -                    112                                   C                  -
 -                    113                                   C                  -
 -                    114                                   C                  -
 -                    115                                   C                  -
 -                    116                                   C                  -
 -                    117                                   C                  -
 -                    118                                   C                  -
 -                    119                                   C                  -
 -                    120                                   C                  -
 -                    121                                   C                  -
 -                    122                                   C                  -
 -                    123                                   C                  -
 -                    124                                   C                  -
 -                    125                                   C                  -
 -                    126                                   C                  -
 -                    127                                   C                  -
 -                    128                                   C                  -
 -                    129                                   C                  -
 -                    130                                   C                  -
 -                    131                                   C                  -
 -                    132                                   C                  -
 -                    133                                   C                  -
 -                    134                                   C                  -
 -                    135                                   C                  -
 -                    136                                   C                  -
 -                    137                                   C                  -
 -                    138                                   C                  -
 -                    139                                   C                  -
 -                    140                                   C                  -
 -                    141                                   C                  -
 -                    142                                   C                  -
 -                    143                                   C                  -
 -                    144                                   C                  -
 -                    145                                   C                  -
 -                    146                                   C                  -
 -                    147                                   C                  -
 -                    148                                   C                  -
 -                    149                                   C                  -
 -                    150                                   C                  -
 -                    151                                   C                  -
 -                    152                                   C                  -
 -                    153                                   C                  -
 -                    154                                   C                  -
 -                    155                                   C                  -
 -                    156                                   C                  -
 -                    157                                   C                  -
 -                    158                                   C                  -
 -                    159                                   C                  -
 -                    160                                   C                  -
 -                    161                                   C                  -
 -                    162                                   C                  -
 -                    163                                   C                  -
 -                    164                                   C                  -
 -                    165                                   C                  -
 -                    166                                   C                  -
 -                    167                                   C                  -
 -                    168                                   C                  -
 -                    169                                   C                  -
 -                    170                                   C                  -
 -                    171                                   C                  -
 -                    172                                   C                  -
 -                    173                                   C                  -
 -                    174                                   C                  -
 -                    175                                   C                  -
 -                    176                                   C                  -
 -                    177                                   C                  -
 -                    178                                   C                  -
 -                    179                                   C                  -
 -                    180                                   C                  -
 -                    181                                   C                  -
 -                    182                                   C                  -
 -                    183                                   C                  -
 -                    184                                   C                  -
 -                    185                                   C                  -
 -                    186                                   C                  -
 -                    187                                   C                  -
 -                    188                                   C                  -
 -                    189                                   C                  -
 -                    190                                   C                  -
 -                    191                                   C                  -
 -                    192                                   C                  -
 -                    193                                   C                  -
 -                    194                                   C                  -
 -                    195                                   C                  -
 -                    196                                   C                  -
 -                    197                                   C                  -
 -                    198                                   C                  -
 -                    199                                   C                  -
 -                    200                                   C                  -
 -                    201                                   C                  -
 -                    202                                   C                  -
 -                    203                                   C                  -
 -                    204                                   C                  -
 -                    205                                   C                  -
 -                    206                                   C                  -
 -                    207                                   C                  -
 -                    208                                   C                  -
 -                    209                                   C                  -
 -                    210                                   C                  -
 -                    211                                   C                  -
 -                    212                                   C                  -
 -                    213                                   C                  -
 -                    214                                   C                  -
 -                    215                                   C                  -
 -                    216                                   C                  -
 -                    217                                   C                  -
 -                    218                                   C                  -
 -                    219                                   C                  -
 -                    220                                   C                  -
 -                    221                                   C                  -
 -                    222                                   C                  -
 -                    223                                   C                  -
 -                    224                                   C                  -
 -                    225                                   Na_ghost           -
 -------------------------------------------------------------------------------

 *******************************************************************************
 *******************************************************************************
 **                                                                           **
 **     #####                         ##              ##                      **
 **    ##   ##            ##          ##              ##                      **
 **   ##     ##                       ##            ######                    **
 **   ##     ##  ##   ##  ##   #####  ##  ##   ####   ##    #####    #####    **
 **   ##     ##  ##   ##  ##  ##      ## ##   ##      ##   ##   ##  ##   ##   **
 **   ##  ## ##  ##   ##  ##  ##      ####     ###    ##   ######   ######    **
 **    ##  ###   ##   ##  ##  ##      ## ##      ##   ##   ##       ##        **
 **     #######   #####   ##   #####  ##  ##  ####    ##    #####   ##        **
 **           ##                                                    ##        **
 **                                                                           **
 **                                                ... make the atoms dance   **
 **                                                                           **
 **            Copyright (C) by CP2K developers group (2000-2022)             **
 **                      J. Chem. Phys. 152, 194103 (2020)                    **
 **                                                                           **
 *******************************************************************************


 TOTAL NUMBERS AND MAXIMUM NUMBERS

  Total number of            - Atomic kinds:                                   2
                             - Atoms:                                        225
                             - Shell sets:                                   225
                             - Shells:                                      1125
                             - Primitive Cartesian functions:               1127
                             - Cartesian basis functions:                   3145
                             - Spherical basis functions:                   2921

  Maximum angular momentum of- Orbital basis functions:                        2
                             - Local part of the GTH pseudopotential:          2
                             - Non-local part of the GTH pseudopotential:      0


 SCF PARAMETERS         Density guess:                                    ATOMIC
                        --------------------------------------------------------
                        max_scf:                                             100
                        max_scf_history:                                       0
                        max_diis:                                              4
                        --------------------------------------------------------
                        eps_scf:                                        3.00E-07
                        eps_scf_history:                                0.00E+00
                        eps_diis:                                       1.00E-01
                        eps_eigval:                                     1.00E-05
                        --------------------------------------------------------
                        level_shift [a.u.]:                             0.000000
                        added MOs                                       100  100
                        --------------------------------------------------------
                        Mixing method:                            BROYDEN_MIXING
                                                charge density mixing in g-space
                        --------------------------------------------------------
                        Smear method:                                FERMI_DIRAC
                        Electronic temperature [K]:                        300.0
                        Electronic temperature [a.u.]:                  9.50E-04
                        Accuracy threshold:                             1.00E-10
                        --------------------------------------------------------
                        Outer loop SCF in use 
                        No variables optimised in outer loop
                        eps_scf                                         1.00E-06
                        max_scf                                               30
                        DIIS optimization
                        DIIS buffer length                                     3
                        step_size                                       5.00E-01

 Spin 1

[...]
  Total charge density g-space grids:          -0.0001385702

  Overlap energy of the core charge distribution:               0.00004137936484
  Self energy of the core charge distribution:              -3083.64826578983366
  Core Hamiltonian energy:                                    971.95925231093292
  Hartree energy:                                            1188.82674933228827
  Exchange-correlation energy:                               -392.60452013162637
  Dispersion energy:                                           -0.79316201525677
  Electronic entropic energy:                                  -0.00214829165219
  Fermi energy:                                                -0.04639960087949

  Total energy:                                             -1316.26205320578970

  outer SCF iter =    2 RMS gradient =   0.20E-06 energy =      -1316.2620532058
  outer SCF loop converged in   2 iterations or  125 steps


  Integrated absolute spin density  :                               0.0000962947
  WARNING: S**2 computation does not yet treat fractional occupied orbitals

 *** WARNING in qs_loc_utils.F:1500 :: User requested the calculation of ***
 *** the localized wavefunction but the section LOCALIZE was not         ***
 *** specified. Localization will not be performed!                      ***


 -------------------------------------------------------------------------------
 -                                                                             -
 -                                 BSSE RESULTS                                -
 -                                                                             -
 -                 CP-corrected Total energy:    -1316.257516                  -
 -                                                                             -
 -                       1-body contribution:    -1269.132116                  -
 -                       1-body contribution:      -47.159446                  -
 -                                                                             -
 -                       2-body contribution:        0.034046                  -
 -                 BSSE-free interaction energy:        0.034046               -
 -------------------------------------------------------------------------------

 -------------------------------------------------------------------------------
 -                                                                             -
 -                                DBCSR STATISTICS                             -
 -                                                                             -
 -------------------------------------------------------------------------------
 COUNTER                                    TOTAL       BLAS       SMM       ACC
 flops     9 x     9 x     8               111456     100.0%      0.0%      0.0%
 flops     9 x     9 x     9               294516     100.0%      0.0%      0.0%
 flops     9 x     9 x    32              2674944     100.0%      0.0%      0.0%
 flops     9 x     9 x   136              2754000     100.0%      0.0%      0.0%
 flops     9 x     9 x   137              2774250     100.0%      0.0%      0.0%
 flops     9 x     9 x   132              3335904     100.0%      0.0%      0.0%
 flops     9 x     9 x   160             10523520     100.0%      0.0%      0.0%
 flops     9 x     9 x   128             16837632     100.0%      0.0%      0.0%
 flops     9 x    13 x     8             18031104     100.0%      0.0%      0.0%
 flops    13 x     9 x     8             18031104     100.0%      0.0%      0.0%
 flops     9 x    13 x     9             20284992     100.0%      0.0%      0.0%
 flops    13 x     9 x     9             20284992     100.0%      0.0%      0.0%
 flops     9 x    13 x    32            432746496     100.0%      0.0%      0.0%
 flops    13 x     9 x    32            432746496     100.0%      0.0%      0.0%
 flops     9 x    13 x   136            445536000     100.0%      0.0%      0.0%
 flops    13 x     9 x   136            445536000     100.0%      0.0%      0.0%
 flops     9 x    13 x   137            448812000     100.0%      0.0%      0.0%
 flops    13 x     9 x   137            448812000     100.0%      0.0%      0.0%
 flops     9 x    13 x   132            539675136     100.0%      0.0%      0.0%
 flops    13 x     9 x   132            539675136     100.0%      0.0%      0.0%
 flops     9 x    13 x   160           1702471680     100.0%      0.0%      0.0%
 flops    13 x     9 x   160           1702471680     100.0%      0.0%      0.0%
 flops     9 x    13 x   128           2723954688     100.0%      0.0%      0.0%
 flops    13 x     9 x   128           2723954688     100.0%      0.0%      0.0%
 flops    13 x    13 x     8           5860108800     100.0%      0.0%      0.0%
 flops    13 x    13 x     9           6592622400     100.0%      0.0%      0.0%
 flops    13 x    13 x    32         140642611200     100.0%      0.0%      0.0%
 flops    13 x    13 x   136         144799200000     100.0%      0.0%      0.0%
 flops    13 x    13 x   137         145863900000     100.0%      0.0%      0.0%
 flops    13 x    13 x   132         375523948800     100.0%      0.0%      0.0%
 flops    13 x    13 x   160         795884544000     100.0%      0.0%      0.0%
 flops    13 x    13 x   128        1273415270400     100.0%      0.0%      0.0%
 flops inhomo. stacks                           0       0.0%      0.0%      0.0%
 flops total                         2.901285E+12     100.0%      0.0%      0.0%
 flops max/rank                    186.148433E+09     100.0%      0.0%      0.0%
 matmuls inhomo. stacks                         0       0.0%      0.0%      0.0%
 matmuls total                           76725116     100.0%      0.0%      0.0%
 number of processed stacks                115380     100.0%      0.0%      0.0%
 average stack size                                   665.0       0.0       0.0
 marketing flops                     4.514917E+12
 -------------------------------------------------------------------------------
 # multiplications                            872
 max memory usage/rank               1.327022E+09
 # max total images/rank                        1
 # max 3D layers                                1
 # MPI messages exchanged                   83712
 MPI messages size (bytes):
  total size                        47.507317E+09
  min size                           0.000000E+00
  max size                         943.360000E+03
  average size                     567.509062E+03
 MPI breakdown and total messages size (bytes):
             size <=      128               10440                        0
       128 < size <=     8192                 696                   451008
      8192 < size <=    32768                   0                        0
     32768 < size <=   131072                4128                204984096
    131072 < size <=  4194304               68448              47301756144
   4194304 < size <= 16777216                   0                        0
  16777216 < size                               0                        0
 -------------------------------------------------------------------------------
 -                                                                             -
 -                      DBCSR MESSAGE PASSING PERFORMANCE                      -
 -                                                                             -
 -------------------------------------------------------------------------------
 ROUTINE             CALLS      AVE VOLUME [Bytes]
 MP_Bcast               33                     12.
 MP_Allreduce         6197                      8.
 MP_Alltoall         24476                 945173.
 MP_ISend            13952                 220769.
 MP_IRecv            13952                 201782.
 -------------------------------------------------------------------------------

 -------------------------------------------------------------------------------
 -                                                                             -
 -                                DBM STATISTICS                               -
 -                                                                             -
 -------------------------------------------------------------------------------
    M  x    N  x    K                                          COUNT     PERCENT
 -------------------------------------------------------------------------------

 -------------------------------------------------------------------------------
 -                                                                             -
 -                                GRID STATISTICS                              -
 -                                                                             -
 -------------------------------------------------------------------------------
 LP    KERNEL             BACKEND                              COUNT     PERCENT
 4     collocate general  REF                              165912532      49.72%
 4     integrate general  REF                              164175228      49.20%
 3     collocate general  REF                                1757840       0.53%
 3     integrate general  REF                                1739780       0.52%
 2     collocate general  REF                                  34398       0.01%
 2     integrate general  REF                                  34006       0.01%
 0     collocate general  REF                                  10800       0.00%
 -------------------------------------------------------------------------------

 MEMORY| Estimated peak process memory [MiB]                                1266

 -------------------------------------------------------------------------------
 -                                                                             -
 -                         MESSAGE PASSING PERFORMANCE                         -
 -                                                                             -
 -------------------------------------------------------------------------------

 ROUTINE             CALLS      AVE VOLUME [Bytes]
 MP_Group               24
 MP_Bcast             1457                 660193.
 MP_Allreduce         9184                    777.
 MP_Sync              1012
 MP_Alltoall         11015               22642612.
 MP_SendRecv         48384                 511352.
 MP_ISendRecv        37500                 517040.
 MP_Wait             60125
 MP_comm_split         116
 MP_ISend            16412                3170091.
 MP_IRecv            16412                3170326.
 MP_Recv               554                 723958.
 -------------------------------------------------------------------------------


 -------------------------------------------------------------------------------
 -                                                                             -
 -                           R E F E R E N C E S                               -
 -                                                                             -
 -------------------------------------------------------------------------------
 
 CP2K version 2023.1, the CP2K developers group (2023).
 CP2K is freely available from https://www.cp2k.org/ .

 Kuehne,Thomas D.; Iannuzzi,Marcella; Del Ben,Mauro;
 Rybkin,Vladimir V.; Seewald,Patrick; Stein,Frederick; Laino,Teodoro;
 Khaliullin,Rustam Z.; Schuett,Ole; Schiffmann,Florian; Golze,Dorothea;
 Wilhelm,Jan; Chulkov,Sergey; Bani-Hashemian,Mohammad Hossein;
 Weber,Valery; Borstnik,Urban; Taillefumier,Mathieu;
 Jakobovits,Alice Shoshana; Lazzaro,Alfio; Pabst,Hans; Mueller,Tiziano;
 Schade,Robert; Guidon,Manuel; Andermatt,Samuel; Holmberg,Nico;
 Schenter,Gregory K.; Hehn,Anna; Bussy,Augustin; Belleflamme,Fabian;
 Tabacchi,Gloria; Gloess,Andreas; Lass,Michael; Bethune,Iain;
 Mundy,Christopher J.; Plessl,Christian; Watkins,Matt;
 VandeVondele,Joost; Krack,Matthias; Hutter,Juerg. 
 The Journal of Chemical Physics, 152 (19), (2020). 
 CP2K: An electronic structure and molecular dynamics software package -
 Quickstep: Efficient and accurate electronic structure calculations.
 https://doi.org/10.1063/5.0007045

 Goerigk, Lars; Hansen, Andreas; Bauer, Christoph; Ehrlich, Stephan;
 Najibi, Asim; Grimme, Stefan. , 19 (48), (2017). 
 A look at the density functional theory zoo with the advanced GMTKN55 database
 for general main group thermochemistry, kinetics and noncovalent interactions.
 https://doi.org/10.1039/C7CP04913G

 Schuett, Ole; Messmer, Peter; Hutter, Juerg; VandeVondele, Joost. 
 Electronic Structure Calculations on Graphics Processing Units, John
 Wiley & Sons, Ltd, 173-190 (2016). 
 GPU-Accelerated Sparse Matrix-Matrix Multiplication for
 Linear Scaling Density Functional Theory.
 https://doi.org/10.1002/9781118670712.ch8

 Borstnik, U; VandeVondele, J; Weber, V; Hutter, J. 
 PARALLEL COMPUTING, 40 (5-6), 47-58 (2014). 
 Sparse matrix multiplication: The distributed block-compressed sparse
 row library.
 https://doi.org/10.1016/j.parco.2014.03.012

 Hutter, J; Iannuzzi, M; Schiffmann, F; VandeVondele, J. 
 WIREs Comput Mol Sci., 4 (1), 15-25 (2014). 
 CP2K: atomistic simulations of condensed matter systems.
 https://doi.org/10.1002/wcms.1159

 Marek, A; Blum, V; Johanni, R; Havu, V; Lang, B; Auckenthaler, T;
 Heinecke, A; Bungartz, H; Lederer, H. 
 Journal of Physics: Condensed Matter, 26 (21), (2014). 
 The ELPA library: scalable parallel eigenvalue solutions for
 electronic structure
 theory and computational science.
 https://doi.org/10.1088/0953-8984/26/21/213201

 Grimme, S; Ehrlich, S; Goerigk, L. 
 JOURNAL OF COMPUTATIONAL CHEMISTRY, 32, 1456 (2011). 
 Effect of the damping function in dispersion corrected density functional theory.
 https://doi.org/10.1002/jcc.21759

 Grimme, S; Antony, J; Ehrlich, S; Krieg, H. 
 JOURNAL OF CHEMICAL PHYSICS, 132 (15), 154104 (2010). 
 A consistent and accurate ab initio parametrization of density
 functional dispersion correction (DFT-D) for the 94 elements H-Pu.
 https://doi.org/10.1063/1.3382344

 VandeVondele, J; Hutter, J. 
 JOURNAL OF CHEMICAL PHYSICS, 127 (11), 114105 (2007). 
 Gaussian basis sets for accurate calculations on molecular systems in
 gas and condensed phases.
 https://doi.org/10.1063/1.2770708

 Krack, M. 
 THEORETICAL CHEMISTRY ACCOUNTS, 114 (1-3), 145-152 (2005). 
 Pseudopotentials for H to Kr optimized for gradient-corrected
 exchange-correlation functionals.
 https://doi.org/10.1007/s00214-005-0655-y

 VandeVondele, J; Krack, M; Mohamed, F; Parrinello, M; Chassaing, T;
 Hutter, J. COMPUTER PHYSICS COMMUNICATIONS, 167 (2), 103-128 (2005). 
 QUICKSTEP: Fast and accurate density functional calculations using a
 mixed Gaussian and plane waves approach.
 https://doi.org/10.1016/j.cpc.2004.12.014

 Frigo, M; Johnson, SG. 
 PROCEEDINGS OF THE IEEE, 93 (2), 216-231 (2005). 
 The design and implementation of FFTW3.
 https://doi.org/10.1109/JPROC.2004.840301

 Hartwigsen, C; Goedecker, S; Hutter, J. 
 PHYSICAL REVIEW B, 58 (7), 3641-3662 (1998). 
 Relativistic separable dual-space Gaussian pseudopotentials from H to Rn.
 https://doi.org/10.1103/PhysRevB.58.3641

 Lippert, G; Hutter, J; Parrinello, M. 
 MOLECULAR PHYSICS, 92 (3), 477-487 (1997). 
 A hybrid Gaussian and plane wave density functional scheme.
 https://doi.org/10.1080/002689797170220

 Goedecker, S; Teter, M; Hutter, J. 
 PHYSICAL REVIEW B, 54 (3), 1703-1710 (1996). 
 Separable dual-space Gaussian pseudopotentials.
 https://doi.org/10.1103/PhysRevB.54.1703

 BECKE, AD. PHYSICAL REVIEW A, 38 (6), 3098-3100 (1988). 
 DENSITY-FUNCTIONAL EXCHANGE-ENERGY APPROXIMATION WITH CORRECT
 ASYMPTOTIC-BEHAVIOR.
 https://doi.org/10.1103/PhysRevA.38.3098

 LEE, CT; YANG, WT; PARR, RG. 
 PHYSICAL REVIEW B, 37 (2), 785-789 (1988). 
 DEVELOPMENT OF THE COLLE-SALVETTI CORRELATION-ENERGY FORMULA INTO A
 FUNCTIONAL OF THE ELECTRON-DENSITY.
 https://doi.org/10.1103/PhysRevB.37.785


 -------------------------------------------------------------------------------
 -                                                                             -
 -                                T I M I N G                                  -
 -                                                                             -
 -------------------------------------------------------------------------------
 SUBROUTINE                       CALLS  ASD         SELF TIME        TOTAL TIME
                                MAXIMUM       AVERAGE  MAXIMUM  AVERAGE  MAXIMUM
 CP2K                                 1  1.0     0.13     0.15 17108.71 17108.71
 qs_energies                          5  2.0     0.00     0.00 17103.95 17103.97
 scf_env_do_scf                       5  3.0     0.00     0.00 17059.69 17060.40
 scf_env_do_scf_inner_loop          436  4.0     0.03     0.05 17059.68 17060.39
 qs_scf_new_mos                     436  5.0     0.01     0.03 10021.91 10029.13
 eigensolver                        872  6.0     0.09     0.14  9722.66  9724.85
 cp_fm_diag_elpa                    756  7.0     0.01     0.01  6080.99  6083.29
 cp_fm_diag_elpa_base               756  8.0  6062.47  6067.20  6074.87  6075.27
 cp_fm_triangular_multiply         2616  7.0  3631.26  3636.64  3631.26  3636.64
 qs_ks_update_qs_env                436  5.0     0.01     0.02  3371.38  3372.08
 rebuild_ks_matrix                  436  6.0     0.00     0.00  3356.28  3357.15
 qs_ks_build_kohn_sham_matrix       436  7.0     0.11     0.14  3356.28  3357.15
 qs_rho_update_rho_low              441  5.0     0.01     0.02  3028.40  3028.79
 calculate_rho_elec                 882  6.0     3.17     4.88  3028.39  3028.78
 sum_up_and_integrate               436  8.0     9.64    13.38  2889.01  2889.78
 integrate_v_rspace                 872  9.0     0.06     0.10  2879.37  2880.60
 grid_collocate_task_list           882  7.0  1742.94  2182.25  1742.94  2182.25
 grid_integrate_task_list           872 10.0  1744.54  2166.78  1744.54  2166.78
 density_rs2pw                      882  7.0     0.07     0.08  1242.54  1410.83
 rs_pw_transfer                    7021  9.5     0.14     0.17  1052.04  1221.73
 mp_alltoall_d11v                 12248  9.3   814.32   987.17   814.32   987.17
 mp_waitany                       16412 11.5   771.82   956.08   771.82   956.08
 rs_pw_transfer_RS2PW_150           887  9.0    19.35    22.37   765.17   943.44
 rs_gather_matrices                 872 10.0     2.54     3.83   768.02   940.34
 pw_transfer                      10071  9.0     1.30     1.71   783.18   797.65
 fft_wrap_pw1pw2                   9199  9.9     0.15     0.17   774.28   787.27
 fft_wrap_pw1pw2_150               3937 10.2    38.49    42.28   633.19   662.61
 gspace_mixing                      430  5.0     3.14     4.30   636.24   636.39
 fft3d_ps                          9199 11.9   252.42   294.06   603.88   628.27
 broyden_mixing                     430  6.0   339.84   368.13   426.40   428.85
 potential_pw2rs                    872 10.0     0.25     0.30   366.75   368.97
 qs_vxc_create                      436  8.0     0.01     0.03   348.33   352.17
 xc_vxc_pw_create                   436  9.0    13.36    15.35   348.31   352.15
 -------------------------------------------------------------------------------

 The number of warnings for this run is : 7
 
 -------------------------------------------------------------------------------
  **** **** ******  **  PROGRAM ENDED AT                 2025-05-15 19:25:27.854
 ***** ** ***  *** **   PROGRAM RAN ON                                sebnode130
 **    ****   ******    PROGRAM RAN BY                                    luehrs
 ***** **    ** ** **   PROGRAM PROCESS ID                               1479424
  **** **  *******  **  PROGRAM STOPPED IN /home/luehrs/PhD/Sodium_batteries/Sod
                                           ium-graphene-interlayer/AB_Interlayer
                                           /Zig-Zag1_3.76A
