 DBCSR| CPU Multiplication driver                                           BLAS (U)
 DBCSR| Multrec recursion limit                                              512 (U)
 DBCSR| Multiplication stack size                                           1000 (D)
 DBCSR| Maximum elements for images                                    UNLIMITED (U)
 DBCSR| Multiplicative factor virtual images                                   1 (U)
 DBCSR| Use multiplication densification                                       T (D)
 DBCSR| Multiplication size stacks                                             3 (U)
 DBCSR| Use memory pool for CPU allocation                                     F (U)
 DBCSR| Number of 3D layers                                               SINGLE (U)
 DBCSR| Use MPI memory allocation                                              F (U)
 DBCSR| Use RMA algorithm                                                      F (U)
 DBCSR| Use Communication thread                                               T (U)
 DBCSR| Communication thread load                                             87 (D)
 DBCSR| MPI: My process id                                                     0
 DBCSR| MPI: Number of processes                                              16
 DBCSR| OMP: Current number of threads                                         1
 DBCSR| OMP: Max number of threads                                             1
 DBCSR| Split modifier for TAS multiplication algorithm                  1.0E+00 (U)


  **** **** ******  **  PROGRAM STARTED AT               2025-05-27 14:34:40.420
 ***** ** ***  *** **   PROGRAM STARTED ON                            sebnode130
 **    ****   ******    PROGRAM STARTED BY                                luehrs
 ***** **    ** ** **   PROGRAM PROCESS ID                               1584925
  **** **  *******  **  PROGRAM STARTED IN /home/luehrs/PhD/Sodium_batteries/Sod
                                           ium-graphene-interlayer/AB_Interlayer
                                           /Zig-Zag1_3.76A

 CP2K| version string:                                       CP2K version 2023.1
 CP2K| source code revision number:                                  git:b888bd8
 CP2K| cp2kflags: omp libint fftw3 libxc elpa parallel scalapack spglib         
 CP2K| is freely available from                            https://www.cp2k.org/
 CP2K| Program compiled at                          Tue Jan 10 19:52:03 UTC 2023
 CP2K| Program compiled on                                            x86-ubc-01
 CP2K| Program compiled for                                Linux-x86_64-gfortran
 CP2K| Data directory path                                       /usr/share/cp2k
 CP2K| Input file name                                         input.zig-zag.inp

 GLOBAL| Force Environment number                                              1
 GLOBAL| Basis set file name                                      ./BASIS_MOLOPT
 GLOBAL| Potential file name                                    ./GTH_POTENTIALS
 GLOBAL| MM Potential file name                                     MM_POTENTIAL
 GLOBAL| Coordinate file name             AB_3.76A_nonconstraint_PBE_relaxed.xyz
 GLOBAL| Method name                                                        CP2K
 GLOBAL| Project name                          AB_3.76A_nonconstraint_1_PBE_BSSE
 GLOBAL| Run type                                                           BSSE
 GLOBAL| FFT library                                                       FFTW3
 GLOBAL| Diagonalization library                                            ELPA
 GLOBAL| DGEMM library                                                      BLAS
 GLOBAL| Minimum number of eigenvectors for ELPA usage                        16
 GLOBAL| Orthonormality check for eigenvectors                          DISABLED
 GLOBAL| Matrix multiplication library                                 ScaLAPACK
 GLOBAL| All-to-all communication in single precision                          F
 GLOBAL| FFTs using library dependent lengths                                  F
 GLOBAL| Grid backend                                                       AUTO
 GLOBAL| Global print level                                                  LOW
 GLOBAL| MPI I/O enabled                                                       T
 GLOBAL| Total number of message passing processes                            16
 GLOBAL| Number of threads for this process                                    1
 GLOBAL| This output is from process                                           0
 GLOBAL| Stack size for threads created by OpenMP (OMP_STACKSIZE)        default
 GLOBAL| CPU model name                          AMD EPYC 7513 32-Core Processor

 MEMORY| system memory details [Kb]
 MEMORY|                        rank 0           min           max       average
 MEMORY| MemTotal            131832644     131832644     131832644     131832644
 MEMORY| MemFree             127100532     127100532     127100532     127100532
 MEMORY| Buffers                124768        124768        124768        124768
 MEMORY| Cached                 790556        790556        790556        790556
 MEMORY| Slab                   816684        816684        816684        816684
 MEMORY| SReclaimable           175528        175528        175528        175528
 MEMORY| MemLikelyFree       128191384     128191384     128191384     128191384


 GENERATE|  Preliminary Number of Bonds generated:                             0
 GENERATE|  Achieved consistency in connectivity generation.

 *******************************************************************************
 *******************************************************************************
 **                                                                           **
 **     #####                         ##              ##                      **
 **    ##   ##            ##          ##              ##                      **
 **   ##     ##                       ##            ######                    **
 **   ##     ##  ##   ##  ##   #####  ##  ##   ####   ##    #####    #####    **
 **   ##     ##  ##   ##  ##  ##      ## ##   ##      ##   ##   ##  ##   ##   **
 **   ##  ## ##  ##   ##  ##  ##      ####     ###    ##   ######   ######    **
 **    ##  ###   ##   ##  ##  ##      ## ##      ##   ##   ##       ##        **
 **     #######   #####   ##   #####  ##  ##  ####    ##    #####   ##        **
 **           ##                                                    ##        **
 **                                                                           **
 **                                                ... make the atoms dance   **
 **                                                                           **
 **            Copyright (C) by CP2K developers group (2000-2022)             **
 **                      J. Chem. Phys. 152, 194103 (2020)                    **
 **                                                                           **
 *******************************************************************************


 TOTAL NUMBERS AND MAXIMUM NUMBERS

  Total number of            - Atomic kinds:                                   2
                             - Atoms:                                        225
                             - Shell sets:                                   225
                             - Shells:                                      1125
                             - Primitive Cartesian functions:               1127
                             - Cartesian basis functions:                   3145
                             - Spherical basis functions:                   2921

  Maximum angular momentum of- Orbital basis functions:                        2
                             - Local part of the GTH pseudopotential:          2
                             - Non-local part of the GTH pseudopotential:      1


 SCF PARAMETERS         Density guess:                                    ATOMIC
                        --------------------------------------------------------
                        max_scf:                                             100
                        max_scf_history:                                       0
                        max_diis:                                              4
                        --------------------------------------------------------
                        eps_scf:                                        3.00E-07
                        eps_scf_history:                                0.00E+00
                        eps_diis:                                       1.00E-01
                        eps_eigval:                                     1.00E-05
                        --------------------------------------------------------
                        level_shift [a.u.]:                             0.000000
                        added MOs                                       100  100
                        --------------------------------------------------------
                        Mixing method:                            BROYDEN_MIXING
                                                charge density mixing in g-space
                        --------------------------------------------------------
                        Smear method:                                FERMI_DIRAC
                        Electronic temperature [K]:                        300.0
                        Electronic temperature [a.u.]:                  9.50E-04
                        Accuracy threshold:                             1.00E-10
                        --------------------------------------------------------
                        Outer loop SCF in use 
                        No variables optimised in outer loop
                        eps_scf                                         1.00E-06
                        max_scf                                               30
                        DIIS optimization
                        DIIS buffer length                                     3
                        step_size                                       5.00E-01

 -------------------------------------------------------------------------------
 -                                                                             -
 -  BSSE CALCULATION         FRAGMENT CONF: 10        FRAGMENT SUBCONF: 10     -
 -                           CHARGE =     0           MULTIPLICITY =     0     -
 -                                                                             -
 -                 ATOM INDEX                              ATOM NAME           -
 -                 ----------                              ---------           -
 -                      1                                   C                  -
 -                      2                                   C                  -
 -                      3                                   C                  -
 -                      4                                   C                  -
 -                      5                                   C                  -
 -                      6                                   C                  -
 -                      7                                   C                  -
 -                      8                                   C                  -
 -                      9                                   C                  -
 -                     10                                   C                  -
 -                     11                                   C                  -
 -                     12                                   C                  -
 -                     13                                   C                  -
 -                     14                                   C                  -
 -                     15                                   C                  -
 -                     16                                   C                  -
 -                     17                                   C                  -
 -                     18                                   C                  -
 -                     19                                   C                  -
 -                     20                                   C                  -
 -                     21                                   C                  -
 -                     22                                   C                  -
 -                     23                                   C                  -
 -                     24                                   C                  -
 -                     25                                   C                  -
 -                     26                                   C                  -
 -                     27                                   C                  -
 -                     28                                   C                  -
 -                     29                                   C                  -
 -                     30                                   C                  -
 -                     31                                   C                  -
 -                     32                                   C                  -
 -                     33                                   C                  -
 -                     34                                   C                  -
 -                     35                                   C                  -
 -                     36                                   C                  -
 -                     37                                   C                  -
 -                     38                                   C                  -
 -                     39                                   C                  -
 -                     40                                   C                  -
 -                     41                                   C                  -
 -                     42                                   C                  -
 -                     43                                   C                  -
 -                     44                                   C                  -
 -                     45                                   C                  -
 -                     46                                   C                  -
 -                     47                                   C                  -
 -                     48                                   C                  -
 -                     49                                   C                  -
 -                     50                                   C                  -
 -                     51                                   C                  -
 -                     52                                   C                  -
 -                     53                                   C                  -
 -                     54                                   C                  -
 -                     55                                   C                  -
 -                     56                                   C                  -
 -                     57                                   C                  -
 -                     58                                   C                  -
 -                     59                                   C                  -
 -                     60                                   C                  -
 -                     61                                   C                  -
 -                     62                                   C                  -
 -                     63                                   C                  -
 -                     64                                   C                  -
 -                     65                                   C                  -
 -                     66                                   C                  -
 -                     67                                   C                  -
 -                     68                                   C                  -
 -                     69                                   C                  -
 -                     70                                   C                  -
 -                     71                                   C                  -
 -                     72                                   C                  -
 -                     73                                   C                  -
 -                     74                                   C                  -
 -                     75                                   C                  -
 -                     76                                   C                  -
 -                     77                                   C                  -
 -                     78                                   C                  -
 -                     79                                   C                  -
 -                     80                                   C                  -
 -                     81                                   C                  -
 -                     82                                   C                  -
 -                     83                                   C                  -
 -                     84                                   C                  -
 -                     85                                   C                  -
 -                     86                                   C                  -
 -                     87                                   C                  -
 -                     88                                   C                  -
 -                     89                                   C                  -
 -                     90                                   C                  -
 -                     91                                   C                  -
 -                     92                                   C                  -
 -                     93                                   C                  -
 -                     94                                   C                  -
 -                     95                                   C                  -
 -                     96                                   C                  -
 -                     97                                   C                  -
 -                     98                                   C                  -
 -                     99                                   C                  -
 -                    100                                   C                  -
 -                    101                                   C                  -
 -                    102                                   C                  -
 -                    103                                   C                  -
 -                    104                                   C                  -
 -                    105                                   C                  -
 -                    106                                   C                  -
 -                    107                                   C                  -
 -                    108                                   C                  -
 -                    109                                   C                  -
 -                    110                                   C                  -
 -                    111                                   C                  -
 -                    112                                   C                  -
 -                    113                                   C                  -
 -                    114                                   C                  -
 -                    115                                   C                  -
 -                    116                                   C                  -
 -                    117                                   C                  -
 -                    118                                   C                  -
 -                    119                                   C                  -
 -                    120                                   C                  -
 -                    121                                   C                  -
 -                    122                                   C                  -
 -                    123                                   C                  -
 -                    124                                   C                  -
 -                    125                                   C                  -
 -                    126                                   C                  -
 -                    127                                   C                  -
 -                    128                                   C                  -
 -                    129                                   C                  -
 -                    130                                   C                  -
 -                    131                                   C                  -
 -                    132                                   C                  -
 -                    133                                   C                  -
 -                    134                                   C                  -
 -                    135                                   C                  -
 -                    136                                   C                  -
 -                    137                                   C                  -
 -                    138                                   C                  -
 -                    139                                   C                  -
 -                    140                                   C                  -
 -                    141                                   C                  -
 -                    142                                   C                  -
 -                    143                                   C                  -
 -                    144                                   C                  -
 -                    145                                   C                  -
 -                    146                                   C                  -
 -                    147                                   C                  -
 -                    148                                   C                  -
 -                    149                                   C                  -
 -                    150                                   C                  -
 -                    151                                   C                  -
 -                    152                                   C                  -
 -                    153                                   C                  -
 -                    154                                   C                  -
 -                    155                                   C                  -
 -                    156                                   C                  -
 -                    157                                   C                  -
 -                    158                                   C                  -
 -                    159                                   C                  -
 -                    160                                   C                  -
 -                    161                                   C                  -
 -                    162                                   C                  -
 -                    163                                   C                  -
 -                    164                                   C                  -
 -                    165                                   C                  -
 -                    166                                   C                  -
 -                    167                                   C                  -
 -                    168                                   C                  -
 -                    169                                   C                  -
 -                    170                                   C                  -
 -                    171                                   C                  -
 -                    172                                   C                  -
 -                    173                                   C                  -
 -                    174                                   C                  -
 -                    175                                   C                  -
 -                    176                                   C                  -
 -                    177                                   C                  -
 -                    178                                   C                  -
 -                    179                                   C                  -
 -                    180                                   C                  -
 -                    181                                   C                  -
 -                    182                                   C                  -
 -                    183                                   C                  -
 -                    184                                   C                  -
 -                    185                                   C                  -
 -                    186                                   C                  -
 -                    187                                   C                  -
 -                    188                                   C                  -
 -                    189                                   C                  -
 -                    190                                   C                  -
 -                    191                                   C                  -
 -                    192                                   C                  -
 -                    193                                   C                  -
 -                    194                                   C                  -
 -                    195                                   C                  -
 -                    196                                   C                  -
 -                    197                                   C                  -
 -                    198                                   C                  -
 -                    199                                   C                  -
 -                    200                                   C                  -
 -                    201                                   C                  -
 -                    202                                   C                  -
 -                    203                                   C                  -
 -                    204                                   C                  -
 -                    205                                   C                  -
 -                    206                                   C                  -
 -                    207                                   C                  -
 -                    208                                   C                  -
 -                    209                                   C                  -
 -                    210                                   C                  -
 -                    211                                   C                  -
 -                    212                                   C                  -
 -                    213                                   C                  -
 -                    214                                   C                  -
 -                    215                                   C                  -
 -                    216                                   C                  -
 -                    217                                   C                  -
 -                    218                                   C                  -
 -                    219                                   C                  -
 -                    220                                   C                  -
 -                    221                                   C                  -
 -                    222                                   C                  -
 -                    223                                   C                  -
 -                    224                                   C                  -
 -------------------------------------------------------------------------------

 *******************************************************************************
 *******************************************************************************
 **                                                                           **
 **     #####                         ##              ##                      **
 **    ##   ##            ##          ##              ##                      **
 **   ##     ##                       ##            ######                    **
 **   ##     ##  ##   ##  ##   #####  ##  ##   ####   ##    #####    #####    **
 **   ##     ##  ##   ##  ##  ##      ## ##   ##      ##   ##   ##  ##   ##   **
 **   ##  ## ##  ##   ##  ##  ##      ####     ###    ##   ######   ######    **
 **    ##  ###   ##   ##  ##  ##      ## ##      ##   ##   ##       ##        **
 **     #######   #####   ##   #####  ##  ##  ####    ##    #####   ##        **
 **           ##                                                    ##        **
 **                                                                           **
 **                                                ... make the atoms dance   **
 **                                                                           **
 **            Copyright (C) by CP2K developers group (2000-2022)             **
 **                      J. Chem. Phys. 152, 194103 (2020)                    **
 **                                                                           **
 *******************************************************************************


 TOTAL NUMBERS AND MAXIMUM NUMBERS

  Total number of            - Atomic kinds:                                   1
                             - Atoms:                                        224
                             - Shell sets:                                   224
                             - Shells:                                      1120
                             - Primitive Cartesian functions:               1120
                             - Cartesian basis functions:                   3136
                             - Spherical basis functions:                   2912

  Maximum angular momentum of- Orbital basis functions:                        2
                             - Local part of the GTH pseudopotential:          2
                             - Non-local part of the GTH pseudopotential:      0


 SCF PARAMETERS         Density guess:                                    ATOMIC
                        --------------------------------------------------------
                        max_scf:                                             100
                        max_scf_history:                                       0
                        max_diis:                                              4
                        --------------------------------------------------------
                        eps_scf:                                        3.00E-07
                        eps_scf_history:                                0.00E+00
                        eps_diis:                                       1.00E-01
                        eps_eigval:                                     1.00E-05
                        --------------------------------------------------------
                        level_shift [a.u.]:                             0.000000
                        added MOs                                       100  100
                        --------------------------------------------------------
                        Mixing method:                            BROYDEN_MIXING
                                                charge density mixing in g-space
                        --------------------------------------------------------
                        Smear method:                                FERMI_DIRAC
                        Electronic temperature [K]:                        300.0
                        Electronic temperature [a.u.]:                  9.50E-04
                        Accuracy threshold:                             1.00E-10
                        --------------------------------------------------------
                        Outer loop SCF in use 
                        No variables optimised in outer loop
                        eps_scf                                         1.00E-06
                        max_scf                                               30
                        DIIS optimization
                        DIIS buffer length                                     3
                        step_size                                       5.00E-01

 Spin 1

 Number of electrons:                                                        448
 Number of occupied orbitals:                                                448
 Number of molecular orbitals:                                               548

 Spin 2

 Number of electrons:                                                        448
 Number of occupied orbitals:                                                448
 Number of molecular orbitals:                                               548

 Number of orbital functions:                                               2912
 Number of independent orbital functions:                                   2912

 Extrapolation method: initial_guess


 SCF WAVEFUNCTION OPTIMIZATION

  Step     Update method      Time    Convergence         Total energy    Change
  ------------------------------------------------------------------------------
     1 NoMix/Diag. 0.10E+00    9.5     0.46301841     -1267.4459304274 -1.27E+03
     2 Broy./Diag. 0.10E+00   12.7     0.00120139     -1217.8199355914  4.96E+01
     3 Broy./Diag. 0.10E+00   12.9     0.01335531     -1256.0156675381 -3.82E+01
     4 Broy./Diag. 0.10E+00   12.9     0.00022902     -1272.3266334960 -1.63E+01
     5 Broy./Diag. 0.10E+00   12.9     0.00185039     -1273.0301145801 -7.03E-01
     6 Broy./Diag. 0.10E+00   13.0     0.00007670     -1274.4843380227 -1.45E+00
     7 Broy./Diag. 0.10E+00   13.1     0.00079550     -1275.1209179480 -6.37E-01
     8 Broy./Diag. 0.10E+00   13.2     0.00004922     -1275.5901076730 -4.69E-01
     9 Broy./Diag. 0.10E+00   13.3     0.00068081     -1275.7796815255 -1.90E-01
    10 Broy./Diag. 0.10E+00   13.5     0.00004894     -1275.9831304558 -2.03E-01
    11 Broy./Diag. 0.10E+00   13.5     0.00037541     -1275.9994446521 -1.63E-02
    12 Broy./Diag. 0.10E+00   13.5     0.00001391     -1276.0625906137 -6.31E-02
    13 Broy./Diag. 0.10E+00   13.5     0.00012532     -1276.0327768707  2.98E-02
    14 Broy./Diag. 0.10E+00   13.5     0.00000956     -1276.0631186474 -3.03E-02
    15 Broy./Diag. 0.10E+00   13.5     0.00011204     -1276.1059192520 -4.28E-02
    16 Broy./Diag. 0.10E+00   13.5     0.00000840     -1276.1259518873 -2.00E-02
    17 Broy./Diag. 0.10E+00   13.5     0.00003094     -1276.1139790835  1.20E-02
    18 Broy./Diag. 0.10E+00   13.5     0.00001143     -1276.1035031435  1.05E-02
    19 Broy./Diag. 0.10E+00   13.5     0.00000567     -1276.1003834573  3.12E-03
    20 Broy./Diag. 0.10E+00   13.5     0.00000914     -1276.0995348743  8.49E-04
    21 Broy./Diag. 0.10E+00   13.4     0.00001031     -1276.1013357294 -1.80E-03
    22 Broy./Diag. 0.10E+00   13.5     0.00001242     -1276.1051544063 -3.82E-03
    23 Broy./Diag. 0.10E+00   13.5     0.00000756     -1276.1099609408 -4.81E-03
    24 Broy./Diag. 0.10E+00   13.5     0.00001006     -1276.1122075646 -2.25E-03
    25 Broy./Diag. 0.10E+00   13.5     0.00000808     -1276.1114924114  7.15E-04
    26 Broy./Diag. 0.10E+00   13.5     0.00000293     -1276.1126719531 -1.18E-03
    27 Broy./Diag. 0.10E+00   13.5     0.00001533     -1276.1173522765 -4.68E-03
    28 Broy./Diag. 0.10E+00   13.5     0.00000217     -1276.1227526119 -5.40E-03
    29 Broy./Diag. 0.10E+00   13.5     0.00000499     -1276.1249153000 -2.16E-03
    30 Broy./Diag. 0.10E+00   13.5     0.00000149     -1276.1258320310 -9.17E-04
    31 Broy./Diag. 0.10E+00   13.5     0.00000200     -1276.1253951071  4.37E-04
    32 Broy./Diag. 0.10E+00   13.5     0.00000204     -1276.1247146850  6.80E-04
    33 Broy./Diag. 0.10E+00   13.5     0.00000053     -1276.1241250093  5.90E-04
    34 Broy./Diag. 0.10E+00   13.5     0.00000296     -1276.1237920825  3.33E-04
    35 Broy./Diag. 0.10E+00   13.5     0.00000079     -1276.1240646287 -2.73E-04
    36 Broy./Diag. 0.10E+00   13.5     0.00000070     -1276.1242644968 -2.00E-04
    37 Broy./Diag. 0.10E+00   13.5     0.00000146     -1276.1239315289  3.33E-04
    38 Broy./Diag. 0.10E+00   13.5     0.00000017     -1276.1235962700  3.35E-04

  *** SCF run converged in    38 steps ***


  Electronic density on regular grids:       -895.9999999997        0.0000000003
  Core density on regular grids:              895.9999999992       -0.0000000008
  Total charge density on r-space grids:       -0.0000000004
  Total charge density g-space grids:          -0.0000000004

  Overlap energy of the core charge distribution:               0.00003674465005
  Self energy of the core charge distribution:              -2987.04177559540722
  Core Hamiltonian energy:                                    935.71978485041291
  Hartree energy:                                            1167.24124362806697
  Exchange-correlation energy:                               -391.56652610411504
  Dispersion energy:                                           -0.47635979354128
  Electronic entropic energy:                                  -0.00000000004093
  Fermi energy:                                                -0.08010917970516

  Total energy:                                             -1276.12359626997431

  outer SCF iter =    1 RMS gradient =   0.17E-06 energy =      -1276.1235962700
  outer SCF loop converged in   1 iterations or   38 steps


  Integrated absolute spin density  :                               0.0000000057
  WARNING: S**2 computation does not yet treat fractional occupied orbitals

 *** WARNING in qs_loc_utils.F:1500 :: User requested the calculation of ***
 *** the localized wavefunction but the section LOCALIZE was not         ***
 *** specified. Localization will not be performed!                      ***


 -------------------------------------------------------------------------------
 -                                                                             -
 -  BSSE CALCULATION         FRAGMENT CONF: 01        FRAGMENT SUBCONF: 01     -
 -                           CHARGE =     0           MULTIPLICITY =     0     -
 -                                                                             -
 -                 ATOM INDEX                              ATOM NAME           -
 -                 ----------                              ---------           -
 -                    225                                   Na                 -
 -------------------------------------------------------------------------------

 *******************************************************************************
 *******************************************************************************
 **                                                                           **
 **     #####                         ##              ##                      **
 **    ##   ##            ##          ##              ##                      **
 **   ##     ##                       ##            ######                    **
 **   ##     ##  ##   ##  ##   #####  ##  ##   ####   ##    #####    #####    **
 **   ##     ##  ##   ##  ##  ##      ## ##   ##      ##   ##   ##  ##   ##   **
 **   ##  ## ##  ##   ##  ##  ##      ####     ###    ##   ######   ######    **
 **    ##  ###   ##   ##  ##  ##      ## ##      ##   ##   ##       ##        **
 **     #######   #####   ##   #####  ##  ##  ####    ##    #####   ##        **
 **           ##                                                    ##        **
 **                                                                           **
 **                                                ... make the atoms dance   **
 **                                                                           **
 **            Copyright (C) by CP2K developers group (2000-2022)             **
 **                      J. Chem. Phys. 152, 194103 (2020)                    **
 **                                                                           **
 *******************************************************************************

 *** WARNING in qs_environment.F:1470 :: More ADDED_MOs requested for beta ***
 *** spin than available.                                                  ***


 *** WARNING in qs_environment.F:1486 :: More added MOs requested than     ***
 *** available. The full set of unoccupied MOs will be used. Use           ***
 *** 'ADDED_MOS -1' to always use all available MOs and to get rid of this ***
 *** warning.                                                              ***



 TOTAL NUMBERS AND MAXIMUM NUMBERS

  Total number of            - Atomic kinds:                                   1
                             - Atoms:                                          1
                             - Shell sets:                                     1
                             - Shells:                                         5
                             - Primitive Cartesian functions:                  7
                             - Cartesian basis functions:                      9
                             - Spherical basis functions:                      9

  Maximum angular momentum of- Orbital basis functions:                        1
                             - Local part of the GTH pseudopotential:          2
                             - Non-local part of the GTH pseudopotential:      1


 SCF PARAMETERS         Density guess:                                    ATOMIC
                        --------------------------------------------------------
                        max_scf:                                             100
                        max_scf_history:                                       0
                        max_diis:                                              4
                        --------------------------------------------------------
                        eps_scf:                                        3.00E-07
                        eps_scf_history:                                0.00E+00
                        eps_diis:                                       1.00E-01
                        eps_eigval:                                     1.00E-05
                        --------------------------------------------------------
                        level_shift [a.u.]:                             0.000000
                        added MOs                                         4    5
                        --------------------------------------------------------
                        Mixing method:                            BROYDEN_MIXING
                                                charge density mixing in g-space
                        --------------------------------------------------------
                        Smear method:                                FERMI_DIRAC
                        Electronic temperature [K]:                        300.0
                        Electronic temperature [a.u.]:                  9.50E-04
                        Accuracy threshold:                             1.00E-10
                        --------------------------------------------------------
                        Outer loop SCF in use 
                        No variables optimised in outer loop
                        eps_scf                                         1.00E-06
                        max_scf                                               30
                        DIIS optimization
                        DIIS buffer length                                     3
                        step_size                                       5.00E-01

 Spin 1

 Number of electrons:                                                          5
 Number of occupied orbitals:                                                  5
 Number of molecular orbitals:                                                 9

 Spin 2

 Number of electrons:                                                          4
 Number of occupied orbitals:                                                  4
 Number of molecular orbitals:                                                 9

 Number of orbital functions:                                                  9
 Number of independent orbital functions:                                      9

 Extrapolation method: initial_guess


 SCF WAVEFUNCTION OPTIMIZATION

  Step     Update method      Time    Convergence         Total energy    Change
  ------------------------------------------------------------------------------
     1 NoMix/Diag. 0.10E+00    1.1     0.42029971       -47.1734887107 -4.72E+01
     2 Broy./Diag. 0.10E+00    2.5     0.00656687       -47.1323492835  4.11E-02
     3 Broy./Diag. 0.10E+00    2.6     0.02134399       -47.1736345787 -4.13E-02
     4 Broy./Diag. 0.10E+00    2.7     0.00031738       -47.1653853647  8.25E-03
     5 Broy./Diag. 0.10E+00    2.7     0.12560821       -47.1763515062 -1.10E-02
     6 Broy./Diag. 0.10E+00    2.8     0.01731112       -46.7689941336  4.07E-01
     7 Broy./Diag. 0.10E+00    2.9     0.00449366       -46.7609704553  8.02E-03
     8 Broy./Diag. 0.10E+00    3.0     0.01213958       -46.7743891702 -1.34E-02
     9 Broy./Diag. 0.10E+00    3.1     0.04278293       -46.8695599199 -9.52E-02
    10 Broy./Diag. 0.10E+00    3.2     0.01779922       -47.0226061586 -1.53E-01
    11 Broy./Diag. 0.10E+00    3.2     0.00516766       -47.0922583626 -6.97E-02
    12 Broy./Diag. 0.10E+00    3.2     0.01515225       -47.1107466053 -1.85E-02
    13 Broy./Diag. 0.10E+00    3.2     0.01951850       -47.1641892000 -5.34E-02
    14 Broy./Diag. 0.10E+00    3.2     0.00410099       -47.2172065684 -5.30E-02
    15 Broy./Diag. 0.10E+00    3.2     0.01087823       -47.1845456112  3.27E-02
    16 Broy./Diag. 0.10E+00    3.2     0.01030785       -47.2054525597 -2.09E-02
    17 Broy./Diag. 0.10E+00    3.2     0.00138019       -47.2448415980 -3.94E-02
    18 Broy./Diag. 0.10E+00    3.2     0.00361427       -47.2468206547 -1.98E-03
    19 Broy./Diag. 0.10E+00    3.2     0.00345624       -47.2508501255 -4.03E-03
    20 Broy./Diag. 0.10E+00    3.2     0.00205627       -47.2657324696 -1.49E-02
    21 Broy./Diag. 0.10E+00    3.2     0.00221876       -47.2694307069 -3.70E-03
    22 Broy./Diag. 0.10E+00    3.2     0.00017538       -47.2660470240  3.38E-03
    23 Broy./Diag. 0.10E+00    3.2     0.00019572       -47.2635259384  2.52E-03
    24 Broy./Diag. 0.10E+00    3.2     0.01637305       -47.2708868454 -7.36E-03
    25 Broy./Diag. 0.10E+00    3.2     0.00383660       -47.1901766896  8.07E-02
    26 Broy./Diag. 0.10E+00    3.2     0.00256555       -47.1726337386  1.75E-02
    27 Broy./Diag. 0.10E+00    3.2     0.00121129       -47.1635106840  9.12E-03
    28 Broy./Diag. 0.10E+00    3.2     0.00029525       -47.1667355467 -3.22E-03
    29 Broy./Diag. 0.10E+00    3.2     0.00105453       -47.1746861578 -7.95E-03
    30 Broy./Diag. 0.10E+00    3.2     0.00308860       -47.1817024503 -7.02E-03
    31 Broy./Diag. 0.10E+00    3.2     0.00186955       -47.1925223160 -1.08E-02
    32 Broy./Diag. 0.10E+00    3.2     0.00152835       -47.2038032516 -1.13E-02
    33 Broy./Diag. 0.10E+00    3.2     0.00214011       -47.2115793046 -7.78E-03
    34 Broy./Diag. 0.10E+00    3.2     0.00393570       -47.2216016331 -1.00E-02
    35 Broy./Diag. 0.10E+00    3.2     0.00521008       -47.2392550726 -1.77E-02
    36 Broy./Diag. 0.10E+00    3.2     0.00262951       -47.2554187177 -1.62E-02
    37 Broy./Diag. 0.10E+00    3.2     0.00023480       -47.2734958451 -1.81E-02
    38 Broy./Diag. 0.10E+00    3.2     0.00315983       -47.2753478701 -1.85E-03
    39 Broy./Diag. 0.10E+00    3.2     0.00018726       -47.2901528995 -1.48E-02
    40 Broy./Diag. 0.10E+00    3.2     0.00056896       -47.2809265243  9.23E-03
    41 Broy./Diag. 0.10E+00    3.2     0.00014739       -47.2804804414  4.46E-04
    42 Broy./Diag. 0.10E+00    3.2     0.00026598       -47.2787145470  1.77E-03
    43 Broy./Diag. 0.10E+00    3.2     0.00006508       -47.2756754228  3.04E-03
    44 Broy./Diag. 0.10E+00    3.2     0.00002402       -47.2740347343  1.64E-03
    45 Broy./Diag. 0.10E+00    3.2     0.00064803       -47.2459272225  2.81E-02
    46 Broy./Diag. 0.10E+00    3.2     0.00012353       -47.2375261404  8.40E-03
    47 Broy./Diag. 0.10E+00    3.2     0.00082649       -47.2013445857  3.62E-02
    48 Broy./Diag. 0.10E+00    3.2     0.00019685       -47.1871416204  1.42E-02
    49 Broy./Diag. 0.10E+00    3.2     0.00018261       -47.1791119333  8.03E-03
    50 Broy./Diag. 0.10E+00    3.2     0.00016492       -47.1741105016  5.00E-03
    51 Broy./Diag. 0.10E+00    3.2     0.00012871       -47.1700510195  4.06E-03
    52 Broy./Diag. 0.10E+00    3.2     0.00002191       -47.1684303186  1.62E-03
    53 Broy./Diag. 0.10E+00    3.2     0.00005209       -47.1676185817  8.12E-04
    54 Broy./Diag. 0.10E+00    3.2     0.00004662       -47.1672642413  3.54E-04
    55 Broy./Diag. 0.10E+00    3.2     0.00005399       -47.1672277463  3.65E-05
    56 Broy./Diag. 0.10E+00    3.2     0.00002426       -47.1673269868 -9.92E-05
    57 Broy./Diag. 0.10E+00    3.2     0.00003367       -47.1674497409 -1.23E-04
    58 Broy./Diag. 0.10E+00    3.2     0.00001643       -47.1675328112 -8.31E-05
    59 Broy./Diag. 0.10E+00    3.2     0.00000960       -47.1677617863 -2.29E-04
    60 Broy./Diag. 0.10E+00    3.2     0.00000507       -47.1678881458 -1.26E-04
    61 Broy./Diag. 0.10E+00    3.2     0.00001058       -47.1674903329  3.98E-04
    62 Broy./Diag. 0.10E+00    3.2     0.00000813       -47.1674039694  8.64E-05
    63 Broy./Diag. 0.10E+00    3.2     0.00000345       -47.1674378734 -3.39E-05
    64 Broy./Diag. 0.10E+00    3.2     0.00000257       -47.1674112517  2.66E-05
    65 Broy./Diag. 0.10E+00    3.2     0.00000348       -47.1674467863 -3.55E-05
    66 Broy./Diag. 0.10E+00    3.2     0.00000576       -47.1674931955 -4.64E-05
    67 Broy./Diag. 0.10E+00    3.2     0.00000522       -47.1674566174  3.66E-05
    68 Broy./Diag. 0.10E+00    3.2     0.00000059       -47.1674554822  1.14E-06
    69 Broy./Diag. 0.10E+00    3.2     0.00000775       -47.1674964686 -4.10E-05
    70 Broy./Diag. 0.10E+00    3.2     0.00000349       -47.1676434487 -1.47E-04
    71 Broy./Diag. 0.10E+00    3.2     0.00000317       -47.1674846813  1.59E-04
    72 Broy./Diag. 0.10E+00    3.2     0.00000038       -47.1674435749  4.11E-05
    73 Broy./Diag. 0.10E+00    3.2     0.00000171       -47.1674712674 -2.77E-05
    74 Broy./Diag. 0.10E+00    3.2     0.00000042       -47.1674991901 -2.79E-05
    75 Broy./Diag. 0.10E+00    3.2     0.00000124       -47.1674769518  2.22E-05
    76 Broy./Diag. 0.10E+00    3.2     0.00000061       -47.1674525222  2.44E-05
    77 Broy./Diag. 0.10E+00    3.2     0.00000200       -47.1674494500  3.07E-06
    78 Broy./Diag. 0.10E+00    3.2     0.00000027       -47.1674602682 -1.08E-05

  *** SCF run converged in    78 steps ***


  Electronic density on regular grids:         -9.0001404596       -0.0001404596
  Core density on regular grids:                9.0000000000       -0.0000000000
  Total charge density on r-space grids:       -0.0001404596
  Total charge density g-space grids:          -0.0001404596

  Overlap energy of the core charge distribution:               0.00000000000000
  Self energy of the core charge distribution:                -96.60649019442629
  Core Hamiltonian energy:                                     29.76237792836319
  Hartree energy:                                              26.73003249106315
  Exchange-correlation energy:                                 -7.05337759926548
  Dispersion energy:                                           -0.00000289392739
  Electronic entropic energy:                                  -0.00000000000000
  Fermi energy:                                                -0.07210338698767

  Total energy:                                               -47.16746026819281

  outer SCF iter =    1 RMS gradient =   0.27E-06 energy =        -47.1674602682
  outer SCF loop converged in   1 iterations or   78 steps


  Integrated absolute spin density  :                               1.0000386529
  WARNING: S**2 computation does not yet treat fractional occupied orbitals

 *** WARNING in qs_loc_utils.F:1500 :: User requested the calculation of ***
 *** the localized wavefunction but the section LOCALIZE was not         ***
 *** specified. Localization will not be performed!                      ***


 -------------------------------------------------------------------------------
 -                                                                             -
 -  BSSE CALCULATION         FRAGMENT CONF: 11        FRAGMENT SUBCONF: 10     -
 -                           CHARGE =     0           MULTIPLICITY =     0     -
 -                                                                             -
 -                 ATOM INDEX                              ATOM NAME           -
 -                 ----------                              ---------           -
 -                      1                                   C                  -
 -                      2                                   C                  -
 -                      3                                   C                  -
 -                      4                                   C                  -
 -                      5                                   C                  -
 -                      6                                   C                  -
 -                      7                                   C                  -
 -                      8                                   C                  -
 -                      9                                   C                  -
 -                     10                                   C                  -
 -                     11                                   C                  -
 -                     12                                   C                  -
 -                     13                                   C                  -
 -                     14                                   C                  -
 -                     15                                   C                  -
 -                     16                                   C                  -
 -                     17                                   C                  -
 -                     18                                   C                  -
 -                     19                                   C                  -
 -                     20                                   C                  -
 -                     21                                   C                  -
 -                     22                                   C                  -
 -                     23                                   C                  -
 -                     24                                   C                  -
 -                     25                                   C                  -
 -                     26                                   C                  -
 -                     27                                   C                  -
 -                     28                                   C                  -
 -                     29                                   C                  -
 -                     30                                   C                  -
 -                     31                                   C                  -
 -                     32                                   C                  -
 -                     33                                   C                  -
 -                     34                                   C                  -
 -                     35                                   C                  -
 -                     36                                   C                  -
 -                     37                                   C                  -
 -                     38                                   C                  -
 -                     39                                   C                  -
 -                     40                                   C                  -
 -                     41                                   C                  -
 -                     42                                   C                  -
 -                     43                                   C                  -
 -                     44                                   C                  -
 -                     45                                   C                  -
 -                     46                                   C                  -
 -                     47                                   C                  -
 -                     48                                   C                  -
 -                     49                                   C                  -
 -                     50                                   C                  -
 -                     51                                   C                  -
 -                     52                                   C                  -
 -                     53                                   C                  -
 -                     54                                   C                  -
 -                     55                                   C                  -
 -                     56                                   C                  -
 -                     57                                   C                  -
 -                     58                                   C                  -
 -                     59                                   C                  -
 -                     60                                   C                  -
 -                     61                                   C                  -
 -                     62                                   C                  -
 -                     63                                   C                  -
 -                     64                                   C                  -
 -                     65                                   C                  -
 -                     66                                   C                  -
 -                     67                                   C                  -
 -                     68                                   C                  -
 -                     69                                   C                  -
 -                     70                                   C                  -
 -                     71                                   C                  -
 -                     72                                   C                  -
 -                     73                                   C                  -
 -                     74                                   C                  -
 -                     75                                   C                  -
 -                     76                                   C                  -
 -                     77                                   C                  -
 -                     78                                   C                  -
 -                     79                                   C                  -
 -                     80                                   C                  -
 -                     81                                   C                  -
 -                     82                                   C                  -
 -                     83                                   C                  -
 -                     84                                   C                  -
 -                     85                                   C                  -
 -                     86                                   C                  -
 -                     87                                   C                  -
 -                     88                                   C                  -
 -                     89                                   C                  -
 -                     90                                   C                  -
 -                     91                                   C                  -
 -                     92                                   C                  -
 -                     93                                   C                  -
 -                     94                                   C                  -
 -                     95                                   C                  -
 -                     96                                   C                  -
 -                     97                                   C                  -
 -                     98                                   C                  -
 -                     99                                   C                  -
 -                    100                                   C                  -
 -                    101                                   C                  -
 -                    102                                   C                  -
 -                    103                                   C                  -
 -                    104                                   C                  -
 -                    105                                   C                  -
 -                    106                                   C                  -
 -                    107                                   C                  -
 -                    108                                   C                  -
 -                    109                                   C                  -
 -                    110                                   C                  -
 -                    111                                   C                  -
 -                    112                                   C                  -
 -                    113                                   C                  -
 -                    114                                   C                  -
 -                    115                                   C                  -
 -                    116                                   C                  -
 -                    117                                   C                  -
 -                    118                                   C                  -
 -                    119                                   C                  -
 -                    120                                   C                  -
 -                    121                                   C                  -
 -                    122                                   C                  -
 -                    123                                   C                  -
 -                    124                                   C                  -
 -                    125                                   C                  -
 -                    126                                   C                  -
 -                    127                                   C                  -
 -                    128                                   C                  -
 -                    129                                   C                  -
 -                    130                                   C                  -
 -                    131                                   C                  -
 -                    132                                   C                  -
 -                    133                                   C                  -
 -                    134                                   C                  -
 -                    135                                   C                  -
 -                    136                                   C                  -
 -                    137                                   C                  -
 -                    138                                   C                  -
 -                    139                                   C                  -
 -                    140                                   C                  -
 -                    141                                   C                  -
 -                    142                                   C                  -
 -                    143                                   C                  -
 -                    144                                   C                  -
 -                    145                                   C                  -
 -                    146                                   C                  -
 -                    147                                   C                  -
 -                    148                                   C                  -
 -                    149                                   C                  -
 -                    150                                   C                  -
 -                    151                                   C                  -
 -                    152                                   C                  -
 -                    153                                   C                  -
 -                    154                                   C                  -
 -                    155                                   C                  -
 -                    156                                   C                  -
 -                    157                                   C                  -
 -                    158                                   C                  -
 -                    159                                   C                  -
 -                    160                                   C                  -
 -                    161                                   C                  -
 -                    162                                   C                  -
 -                    163                                   C                  -
 -                    164                                   C                  -
 -                    165                                   C                  -
 -                    166                                   C                  -
 -                    167                                   C                  -
 -                    168                                   C                  -
 -                    169                                   C                  -
 -                    170                                   C                  -
 -                    171                                   C                  -
 -                    172                                   C                  -
 -                    173                                   C                  -
 -                    174                                   C                  -
 -                    175                                   C                  -
 -                    176                                   C                  -
 -                    177                                   C                  -
 -                    178                                   C                  -
 -                    179                                   C                  -
 -                    180                                   C                  -
 -                    181                                   C                  -
 -                    182                                   C                  -
 -                    183                                   C                  -
 -                    184                                   C                  -
 -                    185                                   C                  -
 -                    186                                   C                  -
 -                    187                                   C                  -
 -                    188                                   C                  -
 -                    189                                   C                  -
 -                    190                                   C                  -
 -                    191                                   C                  -
 -                    192                                   C                  -
 -                    193                                   C                  -
 -                    194                                   C                  -
 -                    195                                   C                  -
 -                    196                                   C                  -
 -                    197                                   C                  -
 -                    198                                   C                  -
 -                    199                                   C                  -
 -                    200                                   C                  -
 -                    201                                   C                  -
 -                    202                                   C                  -
 -                    203                                   C                  -
 -                    204                                   C                  -
 -                    205                                   C                  -
 -                    206                                   C                  -
 -                    207                                   C                  -
 -                    208                                   C                  -
 -                    209                                   C                  -
 -                    210                                   C                  -
 -                    211                                   C                  -
 -                    212                                   C                  -
 -                    213                                   C                  -
 -                    214                                   C                  -
 -                    215                                   C                  -
 -                    216                                   C                  -
 -                    217                                   C                  -
 -                    218                                   C                  -
 -                    219                                   C                  -
 -                    220                                   C                  -
 -                    221                                   C                  -
 -                    222                                   C                  -
 -                    223                                   C                  -
 -                    224                                   C                  -
 -                    225                                   Na_ghost           -
 -------------------------------------------------------------------------------

 *******************************************************************************
 *******************************************************************************
 **                                                                           **
 **     #####                         ##              ##                      **
 **    ##   ##            ##          ##              ##                      **
 **   ##     ##                       ##            ######                    **
 **   ##     ##  ##   ##  ##   #####  ##  ##   ####   ##    #####    #####    **
 **   ##     ##  ##   ##  ##  ##      ## ##   ##      ##   ##   ##  ##   ##   **
 **   ##  ## ##  ##   ##  ##  ##      ####     ###    ##   ######   ######    **
 **    ##  ###   ##   ##  ##  ##      ## ##      ##   ##   ##       ##        **
 **     #######   #####   ##   #####  ##  ##  ####    ##    #####   ##        **
 **           ##                                                    ##        **
 **                                                                           **
 **                                                ... make the atoms dance   **
 **                                                                           **
 **            Copyright (C) by CP2K developers group (2000-2022)             **
 **                      J. Chem. Phys. 152, 194103 (2020)                    **
 **                                                                           **
 *******************************************************************************


 TOTAL NUMBERS AND MAXIMUM NUMBERS

  Total number of            - Atomic kinds:                                   2
                             - Atoms:                                        225
                             - Shell sets:                                   225
                             - Shells:                                      1125
                             - Primitive Cartesian functions:               1127
                             - Cartesian basis functions:                   3145
                             - Spherical basis functions:                   2921

  Maximum angular momentum of- Orbital basis functions:                        2
                             - Local part of the GTH pseudopotential:          2
                             - Non-local part of the GTH pseudopotential:      0


 SCF PARAMETERS         Density guess:                                    ATOMIC
                        --------------------------------------------------------
                        max_scf:                                             100
                        max_scf_history:                                       0
                        max_diis:                                              4
                        --------------------------------------------------------
                        eps_scf:                                        3.00E-07
                        eps_scf_history:                                0.00E+00
                        eps_diis:                                       1.00E-01
                        eps_eigval:                                     1.00E-05
                        --------------------------------------------------------
                        level_shift [a.u.]:                             0.000000
                        added MOs                                       100  100
                        --------------------------------------------------------
                        Mixing method:                            BROYDEN_MIXING
                                                charge density mixing in g-space
                        --------------------------------------------------------
                        Smear method:                                FERMI_DIRAC
                        Electronic temperature [K]:                        300.0
                        Electronic temperature [a.u.]:                  9.50E-04
                        Accuracy threshold:                             1.00E-10
                        --------------------------------------------------------
                        Outer loop SCF in use 
                        No variables optimised in outer loop
                        eps_scf                                         1.00E-06
                        max_scf                                               30
                        DIIS optimization
                        DIIS buffer length                                     3
                        step_size                                       5.00E-01

 Spin 1

 Number of electrons:                                                        448
 Number of occupied orbitals:                                                448
 Number of molecular orbitals:                                               548

 Spin 2

 Number of electrons:                                                        448
 Number of occupied orbitals:                                                448
 Number of molecular orbitals:                                               548

 Number of orbital functions:                                               2921
 Number of independent orbital functions:                                   2921

 Extrapolation method: initial_guess


 SCF WAVEFUNCTION OPTIMIZATION

  Step     Update method      Time    Convergence         Total energy    Change
  ------------------------------------------------------------------------------
     1 NoMix/Diag. 0.10E+00    9.5     0.46304842     -1267.4459304274 -1.27E+03
     2 Broy./Diag. 0.10E+00   12.8     0.00120192     -1217.8056760898  4.96E+01
     3 Broy./Diag. 0.10E+00   12.9     0.01336111     -1255.9875427831 -3.82E+01
     4 Broy./Diag. 0.10E+00   13.0     0.00022893     -1272.3135228733 -1.63E+01
     5 Broy./Diag. 0.10E+00   13.0     0.00182986     -1273.0180462606 -7.05E-01
     6 Broy./Diag. 0.10E+00   17.8     0.00007676     -1274.4773981221 -1.46E+00
     7 Broy./Diag. 0.10E+00   22.6     0.00079574     -1275.1180265821 -6.41E-01
     8 Broy./Diag. 0.10E+00   22.7     0.00004933     -1275.5921638387 -4.74E-01
     9 Broy./Diag. 0.10E+00   22.8     0.00068485     -1275.7831579155 -1.91E-01
    10 Broy./Diag. 0.10E+00   23.0     0.00004830     -1275.9891716095 -2.06E-01
    11 Broy./Diag. 0.10E+00   23.2     0.00037764     -1276.0048318605 -1.57E-02
    12 Broy./Diag. 0.10E+00   23.1     0.00001379     -1276.0680562461 -6.32E-02
    13 Broy./Diag. 0.10E+00   23.1     0.00012563     -1276.0375657191  3.05E-02
    14 Broy./Diag. 0.10E+00   23.2     0.00000959     -1276.0676099574 -3.00E-02
    15 Broy./Diag. 0.10E+00   23.3     0.00011372     -1276.1107242867 -4.31E-02
    16 Broy./Diag. 0.10E+00   23.3     0.00000853     -1276.1304493802 -1.97E-02
    17 Broy./Diag. 0.10E+00   23.3     0.00003108     -1276.1181903663  1.23E-02
    18 Broy./Diag. 0.10E+00   23.3     0.00001058     -1276.1074468831  1.07E-02
    19 Broy./Diag. 0.10E+00   23.3     0.00000554     -1276.1041412499  3.31E-03
    20 Broy./Diag. 0.10E+00   23.3     0.00000877     -1276.1031754584  9.66E-04
[...]

  *** SCF run converged in    42 steps ***


  Electronic density on regular grids:       -905.0001422658       -0.0001422658
  Core density on regular grids:              904.9999999992       -0.0000000008
  Total charge density on r-space grids:       -0.0001422666
  Total charge density g-space grids:          -0.0001422666

  Overlap energy of the core charge distribution:               0.00003674465005
  Self energy of the core charge distribution:              -3083.64826578983366
  Core Hamiltonian energy:                                    966.09922671403046
  Hartree energy:                                            1193.61647954955038
  Exchange-correlation energy:                               -398.91915432414186
  Dispersion energy:                                           -0.48277703540754
  Electronic entropic energy:                                  -0.00228066999971
  Fermi energy:                                                -0.05983145597412

  Total energy:                                             -1323.33673481105916

  outer SCF iter =    1 RMS gradient =   0.28E-06 energy =      -1323.3367348111
  outer SCF loop converged in   1 iterations or   42 steps


  Integrated absolute spin density  :                               0.0005043784
  WARNING: S**2 computation does not yet treat fractional occupied orbitals

 *** WARNING in qs_loc_utils.F:1500 :: User requested the calculation of ***
 *** the localized wavefunction but the section LOCALIZE was not         ***
 *** specified. Localization will not be performed!                      ***


 -------------------------------------------------------------------------------
 -                                                                             -
 -                                 BSSE RESULTS                                -
 -                                                                             -
 -                 CP-corrected Total energy:    -1323.331549                  -
 -                                                                             -
 -                       1-body contribution:    -1276.123596                  -
 -                       1-body contribution:      -47.167460                  -
 -                                                                             -
 -                       2-body contribution:       -0.040493                  -
 -                 BSSE-free interaction energy:       -0.040493               -
 -------------------------------------------------------------------------------

 -------------------------------------------------------------------------------
 -                                                                             -
 -                                DBCSR STATISTICS                             -
 -                                                                             -
 -------------------------------------------------------------------------------
 COUNTER                                    TOTAL       BLAS       SMM       ACC
 flops     9 x     9 x     8               299376     100.0%      0.0%      0.0%
 flops     9 x     9 x     9               564246     100.0%      0.0%      0.0%
 flops     9 x     9 x   136               925344     100.0%      0.0%      0.0%
 flops     9 x     9 x   137               932148     100.0%      0.0%      0.0%
 flops     9 x     9 x   132              1625184     100.0%      0.0%      0.0%
 flops     9 x     9 x   160              4147200     100.0%      0.0%      0.0%
 flops     9 x     9 x   128              6635520     100.0%      0.0%      0.0%
 flops     9 x     9 x    32              7185024     100.0%      0.0%      0.0%
 flops     9 x    13 x     8             48432384     100.0%      0.0%      0.0%
 flops    13 x     9 x     8             48432384     100.0%      0.0%      0.0%
 flops     9 x    13 x     9             54486432     100.0%      0.0%      0.0%
 flops    13 x     9 x     9             54486432     100.0%      0.0%      0.0%
 flops     9 x    13 x   136            149700096     100.0%      0.0%      0.0%
 flops    13 x     9 x   136            149700096     100.0%      0.0%      0.0%
 flops     9 x    13 x   137            150800832     100.0%      0.0%      0.0%
 flops    13 x     9 x   137            150800832     100.0%      0.0%      0.0%
 flops     9 x    13 x   132            262918656     100.0%      0.0%      0.0%
 flops    13 x     9 x   132            262918656     100.0%      0.0%      0.0%
 flops     9 x    13 x   160            670924800     100.0%      0.0%      0.0%
 flops    13 x     9 x   160            670924800     100.0%      0.0%      0.0%
 flops     9 x    13 x   128           1073479680     100.0%      0.0%      0.0%
 flops    13 x     9 x   128           1073479680     100.0%      0.0%      0.0%
 flops     9 x    13 x    32           1162377216     100.0%      0.0%      0.0%
 flops    13 x     9 x    32           1162377216     100.0%      0.0%      0.0%
 flops    13 x    13 x     8          15740524800     100.0%      0.0%      0.0%
 flops    13 x    13 x     9          17708090400     100.0%      0.0%      0.0%
 flops    13 x    13 x   136          48652531200     100.0%      0.0%      0.0%
 flops    13 x    13 x   137          49010270400     100.0%      0.0%      0.0%
 flops    13 x    13 x   132         170897126400     100.0%      0.0%      0.0%
 flops    13 x    13 x   160         321624576000     100.0%      0.0%      0.0%
 flops    13 x    13 x    32         377772595200     100.0%      0.0%      0.0%
 flops    13 x    13 x   128         514599321600     100.0%      0.0%      0.0%
 flops inhomo. stacks                           0       0.0%      0.0%      0.0%
 flops total                         1.523174E+12     100.0%      0.0%      0.0%
 flops max/rank                     97.822299E+09     100.0%      0.0%      0.0%
 matmuls inhomo. stacks                         0       0.0%      0.0%      0.0%
 matmuls total                           70918356     100.0%      0.0%      0.0%
 number of processed stacks                109404     100.0%      0.0%      0.0%
 average stack size                                   648.2       0.0       0.0
 marketing flops                     1.852804E+12
 -------------------------------------------------------------------------------
 # multiplications                            854
 max memory usage/rank               1.306886E+09
 # max total images/rank                        1
 # max 3D layers                                1
 # MPI messages exchanged                   81984
 MPI messages size (bytes):
  total size                        24.937513E+09
  min size                           0.000000E+00
  max size                         943.360000E+03
  average size                     304.175375E+03
 MPI breakdown and total messages size (bytes):
             size <=      128               14040                        0
       128 < size <=     8192                 936                   606528
      8192 < size <=    32768                   0                        0
     32768 < size <=   131072               11088                550596816
    131072 < size <=  4194304               55920              24386332128
   4194304 < size <= 16777216                   0                        0
  16777216 < size                               0                        0
 -------------------------------------------------------------------------------
 -                                                                             -
 -                      DBCSR MESSAGE PASSING PERFORMANCE                      -
 -                                                                             -
 -------------------------------------------------------------------------------
 ROUTINE             CALLS      AVE VOLUME [Bytes]
 MP_Bcast               33                     12.
 MP_Allreduce         6071                      8.
 MP_Alltoall         23972                 841835.
 MP_ISend            13664                 123433.
 MP_IRecv            13664                 107725.
 -------------------------------------------------------------------------------

 -------------------------------------------------------------------------------
 -                                                                             -
 -                                DBM STATISTICS                               -
 -                                                                             -
 -------------------------------------------------------------------------------
    M  x    N  x    K                                          COUNT     PERCENT
 -------------------------------------------------------------------------------

 -------------------------------------------------------------------------------
 -                                                                             -
 -                                GRID STATISTICS                              -
 -                                                                             -
 -------------------------------------------------------------------------------
 LP    KERNEL             BACKEND                              COUNT     PERCENT
 4     collocate general  REF                              154940172      49.67%
 4     integrate general  REF                              153184476      49.11%
 3     collocate general  REF                                1878348       0.60%
 3     integrate general  REF                                1860402       0.60%
 2     collocate general  REF                                  38514       0.01%
 2     integrate general  REF                                  38122       0.01%
 0     collocate general  REF                                  10800       0.00%
 -------------------------------------------------------------------------------

 MEMORY| Estimated peak process memory [MiB]                                1247

 -------------------------------------------------------------------------------
 -                                                                             -
 -                         MESSAGE PASSING PERFORMANCE                         -
 -                                                                             -
 -------------------------------------------------------------------------------

 ROUTINE             CALLS      AVE VOLUME [Bytes]
 MP_Group               24
 MP_Bcast             1430                 677055.
 MP_Allreduce         9121                    781.
 MP_Sync              1034
 MP_Alltoall         10788               22455424.
 MP_SendRecv         46758                 500255.
 MP_ISendRecv        36090                 502766.
 MP_Wait             59439
 MP_comm_split         156
 MP_ISend            16924                3060803.
 MP_IRecv            16924                3061031.
 MP_Recv               312                 679308.
 -------------------------------------------------------------------------------


 -------------------------------------------------------------------------------
 -                                                                             -
 -                           R E F E R E N C E S                               -
 -                                                                             -
 -------------------------------------------------------------------------------
 
 CP2K version 2023.1, the CP2K developers group (2023).
 CP2K is freely available from https://www.cp2k.org/ .

 Kuehne,Thomas D.; Iannuzzi,Marcella; Del Ben,Mauro;
 Rybkin,Vladimir V.; Seewald,Patrick; Stein,Frederick; Laino,Teodoro;
 Khaliullin,Rustam Z.; Schuett,Ole; Schiffmann,Florian; Golze,Dorothea;
 Wilhelm,Jan; Chulkov,Sergey; Bani-Hashemian,Mohammad Hossein;
 Weber,Valery; Borstnik,Urban; Taillefumier,Mathieu;
 Jakobovits,Alice Shoshana; Lazzaro,Alfio; Pabst,Hans; Mueller,Tiziano;
 Schade,Robert; Guidon,Manuel; Andermatt,Samuel; Holmberg,Nico;
 Schenter,Gregory K.; Hehn,Anna; Bussy,Augustin; Belleflamme,Fabian;
 Tabacchi,Gloria; Gloess,Andreas; Lass,Michael; Bethune,Iain;
 Mundy,Christopher J.; Plessl,Christian; Watkins,Matt;
 VandeVondele,Joost; Krack,Matthias; Hutter,Juerg. 
 The Journal of Chemical Physics, 152 (19), (2020). 
 CP2K: An electronic structure and molecular dynamics software package -
 Quickstep: Efficient and accurate electronic structure calculations.
 https://doi.org/10.1063/5.0007045

 Goerigk, Lars; Hansen, Andreas; Bauer, Christoph; Ehrlich, Stephan;
 Najibi, Asim; Grimme, Stefan. , 19 (48), (2017). 
 A look at the density functional theory zoo with the advanced GMTKN55 database
 for general main group thermochemistry, kinetics and noncovalent interactions.
 https://doi.org/10.1039/C7CP04913G

 Schuett, Ole; Messmer, Peter; Hutter, Juerg; VandeVondele, Joost. 
 Electronic Structure Calculations on Graphics Processing Units, John
 Wiley & Sons, Ltd, 173-190 (2016). 
 GPU-Accelerated Sparse Matrix-Matrix Multiplication for
 Linear Scaling Density Functional Theory.
 https://doi.org/10.1002/9781118670712.ch8

 Borstnik, U; VandeVondele, J; Weber, V; Hutter, J. 
 PARALLEL COMPUTING, 40 (5-6), 47-58 (2014). 
 Sparse matrix multiplication: The distributed block-compressed sparse
 row library.
 https://doi.org/10.1016/j.parco.2014.03.012

 Hutter, J; Iannuzzi, M; Schiffmann, F; VandeVondele, J. 
 WIREs Comput Mol Sci., 4 (1), 15-25 (2014). 
 CP2K: atomistic simulations of condensed matter systems.
 https://doi.org/10.1002/wcms.1159

 Marek, A; Blum, V; Johanni, R; Havu, V; Lang, B; Auckenthaler, T;
 Heinecke, A; Bungartz, H; Lederer, H. 
 Journal of Physics: Condensed Matter, 26 (21), (2014). 
 The ELPA library: scalable parallel eigenvalue solutions for
 electronic structure
 theory and computational science.
 https://doi.org/10.1088/0953-8984/26/21/213201

 Grimme, S; Ehrlich, S; Goerigk, L. 
 JOURNAL OF COMPUTATIONAL CHEMISTRY, 32, 1456 (2011). 
 Effect of the damping function in dispersion corrected density functional theory.
 https://doi.org/10.1002/jcc.21759

 Grimme, S; Antony, J; Ehrlich, S; Krieg, H. 
 JOURNAL OF CHEMICAL PHYSICS, 132 (15), 154104 (2010). 
 A consistent and accurate ab initio parametrization of density
 functional dispersion correction (DFT-D) for the 94 elements H-Pu.
 https://doi.org/10.1063/1.3382344

 VandeVondele, J; Hutter, J. 
 JOURNAL OF CHEMICAL PHYSICS, 127 (11), 114105 (2007). 
 Gaussian basis sets for accurate calculations on molecular systems in
 gas and condensed phases.
 https://doi.org/10.1063/1.2770708

 Krack, M. 
 THEORETICAL CHEMISTRY ACCOUNTS, 114 (1-3), 145-152 (2005). 
 Pseudopotentials for H to Kr optimized for gradient-corrected
 exchange-correlation functionals.
 https://doi.org/10.1007/s00214-005-0655-y

 VandeVondele, J; Krack, M; Mohamed, F; Parrinello, M; Chassaing, T;
 Hutter, J. COMPUTER PHYSICS COMMUNICATIONS, 167 (2), 103-128 (2005). 
 QUICKSTEP: Fast and accurate density functional calculations using a
 mixed Gaussian and plane waves approach.
 https://doi.org/10.1016/j.cpc.2004.12.014

 Frigo, M; Johnson, SG. 
 PROCEEDINGS OF THE IEEE, 93 (2), 216-231 (2005). 
 The design and implementation of FFTW3.
 https://doi.org/10.1109/JPROC.2004.840301

 Hartwigsen, C; Goedecker, S; Hutter, J. 
 PHYSICAL REVIEW B, 58 (7), 3641-3662 (1998). 
 Relativistic separable dual-space Gaussian pseudopotentials from H to Rn.
 https://doi.org/10.1103/PhysRevB.58.3641

 Lippert, G; Hutter, J; Parrinello, M. 
 MOLECULAR PHYSICS, 92 (3), 477-487 (1997). 
 A hybrid Gaussian and plane wave density functional scheme.
 https://doi.org/10.1080/002689797170220

 Perdew, JP; Burke, K; Ernzerhof, M. 
 PHYSICAL REVIEW LETTERS, 77 (18), 3865-3868 (1996). 
 Generalized gradient approximation made simple.
 https://doi.org/10.1103/PhysRevLett.77.3865

 Goedecker, S; Teter, M; Hutter, J. 
 PHYSICAL REVIEW B, 54 (3), 1703-1710 (1996). 
 Separable dual-space Gaussian pseudopotentials.
 https://doi.org/10.1103/PhysRevB.54.1703


 -------------------------------------------------------------------------------
 -                                                                             -
 -                                T I M I N G                                  -
 -                                                                             -
 -------------------------------------------------------------------------------
 SUBROUTINE                       CALLS  ASD         SELF TIME        TOTAL TIME
                                MAXIMUM       AVERAGE  MAXIMUM  AVERAGE  MAXIMUM
 CP2K                                 1  1.0     0.16     0.20 15135.72 15135.72
 qs_energies                          5  2.0     0.00     0.00 15132.67 15132.68
 scf_env_do_scf                       5  3.0     0.00     0.00 15104.17 15104.87
 scf_env_do_scf_inner_loop          427  4.0     0.03     0.05 15104.17 15104.87
 qs_scf_new_mos                     427  5.0     0.01     0.03  8961.39  8962.92
 eigensolver                        854  6.0     0.09     0.13  8713.09  8714.24
 cp_fm_diag_elpa                    698  7.0     0.01     0.02  5595.52  5598.75
 cp_fm_diag_elpa_base               698  8.0  5576.40  5582.34  5588.42  5588.76
 cp_fm_triangular_multiply         2562  7.0  3107.48  3115.08  3107.48  3115.08
 qs_ks_update_qs_env                427  5.0     0.01     0.02  2970.01  2970.49
 rebuild_ks_matrix                  427  6.0     0.00     0.00  2957.20  2957.66
 qs_ks_build_kohn_sham_matrix       427  7.0     0.09     0.11  2957.20  2957.65
 qs_rho_update_rho_low              432  5.0     0.01     0.01  2591.08  2591.46
 calculate_rho_elec                 864  6.0     2.99     3.52  2591.08  2591.45
 sum_up_and_integrate               427  8.0     8.83     9.78  2460.71  2461.24
 integrate_v_rspace                 854  9.0     0.05     0.08  2451.87  2452.75
 grid_collocate_task_list           864  7.0  1626.47  1719.42  1626.47  1719.42
 grid_integrate_task_list           854 10.0  1611.59  1684.06  1611.59  1684.06
 density_rs2pw                      864  7.0     0.07     0.10   931.33  1032.26
 rs_pw_transfer                    6877  9.5     0.15     0.18   777.27   877.00
 pw_transfer                       9862  9.0     1.16     1.30   689.86   703.72
 fft_wrap_pw1pw2                   9008 10.0     0.13     0.17   681.29   695.04
 mp_alltoall_d11v                 11996  9.3   551.99   648.03   551.99   648.03
 rs_gather_matrices                 854 10.0     2.22     2.51   503.68   601.64
 fft_wrap_pw1pw2_150               3854 10.2    36.88    38.02   572.84   591.38
 gspace_mixing                      420  5.0     3.07     3.56   584.03   584.14
 rs_pw_transfer_RS2PW_150           869  9.0    21.74    22.56   496.31   576.24
 mp_waitany                       16924 11.5   494.49   575.52   494.49   575.52
 fft3d_ps                          9008 12.0   245.21   269.70   517.30   534.89
 broyden_mixing                     420  6.0   332.84   340.87   398.99   400.51
 qs_vxc_create                      427  8.0     0.01     0.02   390.28   393.78
 xc_vxc_pw_create                   427  9.0    15.51    16.71   390.27   393.76
 potential_pw2rs                    854 10.0     0.22     0.27   336.56   337.40
 -------------------------------------------------------------------------------

 The number of warnings for this run is : 7
 
 -------------------------------------------------------------------------------
  **** **** ******  **  PROGRAM ENDED AT                 2025-05-27 18:46:57.064
 ***** ** ***  *** **   PROGRAM RAN ON                                sebnode130
 **    ****   ******    PROGRAM RAN BY                                    luehrs
 ***** **    ** ** **   PROGRAM PROCESS ID                               1584925
  **** **  *******  **  PROGRAM STOPPED IN /home/luehrs/PhD/Sodium_batteries/Sod
                                           ium-graphene-interlayer/AB_Interlayer
                                           /Zig-Zag1_3.76A
