 DBCSR| CPU Multiplication driver                                           BLAS (U)
 DBCSR| Multrec recursion limit                                              512 (U)
 DBCSR| Multiplication stack size                                           1000 (D)
 DBCSR| Maximum elements for images                                    UNLIMITED (U)
 DBCSR| Multiplicative factor virtual images                                   1 (U)
 DBCSR| Use multiplication densification                                       T (D)
 DBCSR| Multiplication size stacks                                             3 (U)
 DBCSR| Use memory pool for CPU allocation                                     F (U)
 DBCSR| Number of 3D layers                                               SINGLE (U)
 DBCSR| Use MPI memory allocation                                              F (U)
 DBCSR| Use RMA algorithm                                                      F (U)
 DBCSR| Use Communication thread                                               T (U)
 DBCSR| Communication thread load                                             87 (D)
 DBCSR| MPI: My process id                                                     0
 DBCSR| MPI: Number of processes                                              16
 DBCSR| OMP: Current number of threads                                         1
 DBCSR| OMP: Max number of threads                                             1
 DBCSR| Split modifier for TAS multiplication algorithm                  1.0E+00 (U)


  **** **** ******  **  PROGRAM STARTED AT               2025-05-15 14:54:11.677
 ***** ** ***  *** **   PROGRAM STARTED ON                            sebnode130
 **    ****   ******    PROGRAM STARTED BY                                luehrs
 ***** **    ** ** **   PROGRAM PROCESS ID                               1479645
  **** **  *******  **  PROGRAM STARTED IN /home/luehrs/PhD/Sodium_batteries/Sod
                                           ium-graphene-interlayer/AB_Interlayer
                                           /Zig-Zag1_3.76A

 CP2K| version string:                                       CP2K version 2023.1
 CP2K| source code revision number:                                  git:b888bd8
 CP2K| cp2kflags: omp libint fftw3 libxc elpa parallel scalapack spglib         
 CP2K| is freely available from                            https://www.cp2k.org/
 CP2K| Program compiled at                          Tue Jan 10 19:52:03 UTC 2023
 CP2K| Program compiled on                                            x86-ubc-01
 CP2K| Program compiled for                                Linux-x86_64-gfortran
 CP2K| Data directory path                                       /usr/share/cp2k
 CP2K| Input file name                                         input.zig-zag.inp

 GLOBAL| Force Environment number                                              1
 GLOBAL| Basis set file name                                      ./BASIS_MOLOPT
 GLOBAL| Potential file name                                    ./GTH_POTENTIALS
 GLOBAL| MM Potential file name                                     MM_POTENTIAL
 GLOBAL| Coordinate file name                                       AB_3.76A.xyz
 GLOBAL| Method name                                                        CP2K
 GLOBAL| Project name                                                 AB_3.76A_1
 GLOBAL| Run type                                                           BSSE
 GLOBAL| FFT library                                                       FFTW3
 GLOBAL| Diagonalization library                                            ELPA
 GLOBAL| DGEMM library                                                      BLAS
 GLOBAL| Minimum number of eigenvectors for ELPA usage                        16
 GLOBAL| Orthonormality check for eigenvectors                          DISABLED
 GLOBAL| Matrix multiplication library                                 ScaLAPACK
 GLOBAL| All-to-all communication in single precision                          F
 GLOBAL| FFTs using library dependent lengths                                  F
 GLOBAL| Grid backend                                                       AUTO
 GLOBAL| Global print level                                                  LOW
 GLOBAL| MPI I/O enabled                                                       T
 GLOBAL| Total number of message passing processes                            16
 GLOBAL| Number of threads for this process                                    1
 GLOBAL| This output is from process                                           0
 GLOBAL| Stack size for threads created by OpenMP (OMP_STACKSIZE)        default
 GLOBAL| CPU model name                          AMD EPYC 7513 32-Core Processor

 MEMORY| system memory details [Kb]
 MEMORY|                        rank 0           min           max       average
 MEMORY| MemTotal            131832644     131832644     131832644     131832644
 MEMORY| MemFree              96966180      96966180      96966180      96966180
 MEMORY| Buffers                468940        468940        468940        468940
 MEMORY| Cached               10451388      10451384      10451388      10451384
 MEMORY| Slab                   821984        821984        821984        821984
 MEMORY| SReclaimable           178352        178352        178352        178352
 MEMORY| MemLikelyFree       108064860     108064856     108064860     108064856


 GENERATE|  Preliminary Number of Bonds generated:                             0
 GENERATE|  Achieved consistency in connectivity generation.

 *******************************************************************************
 *******************************************************************************
 **                                                                           **
 **     #####                         ##              ##                      **
 **    ##   ##            ##          ##              ##                      **
 **   ##     ##                       ##            ######                    **
 **   ##     ##  ##   ##  ##   #####  ##  ##   ####   ##    #####    #####    **
 **   ##     ##  ##   ##  ##  ##      ## ##   ##      ##   ##   ##  ##   ##   **
 **   ##  ## ##  ##   ##  ##  ##      ####     ###    ##   ######   ######    **
 **    ##  ###   ##   ##  ##  ##      ## ##      ##   ##   ##       ##        **
 **     #######   #####   ##   #####  ##  ##  ####    ##    #####   ##        **
 **           ##                                                    ##        **
 **                                                                           **
 **                                                ... make the atoms dance   **
 **                                                                           **
 **            Copyright (C) by CP2K developers group (2000-2022)             **
 **                      J. Chem. Phys. 152, 194103 (2020)                    **
 **                                                                           **
 *******************************************************************************


 TOTAL NUMBERS AND MAXIMUM NUMBERS

  Total number of            - Atomic kinds:                                   2
                             - Atoms:                                        225
                             - Shell sets:                                   225
                             - Shells:                                      1125
                             - Primitive Cartesian functions:               1127
                             - Cartesian basis functions:                   3145
                             - Spherical basis functions:                   2921

  Maximum angular momentum of- Orbital basis functions:                        2
                             - Local part of the GTH pseudopotential:          2
                             - Non-local part of the GTH pseudopotential:      1


 SCF PARAMETERS         Density guess:                                    ATOMIC
                        --------------------------------------------------------
                        max_scf:                                             100
                        max_scf_history:                                       0
                        max_diis:                                              4
                        --------------------------------------------------------
                        eps_scf:                                        3.00E-07
                        eps_scf_history:                                0.00E+00
                        eps_diis:                                       1.00E-01
                        eps_eigval:                                     1.00E-05
                        --------------------------------------------------------
                        level_shift [a.u.]:                             0.000000
                        added MOs                                       100  100
                        --------------------------------------------------------
                        Mixing method:                            BROYDEN_MIXING
                                                charge density mixing in g-space
                        --------------------------------------------------------
                        Smear method:                                FERMI_DIRAC
                        Electronic temperature [K]:                        300.0
                        Electronic temperature [a.u.]:                  9.50E-04
                        Accuracy threshold:                             1.00E-10
                        --------------------------------------------------------
                        Outer loop SCF in use 
                        No variables optimised in outer loop
                        eps_scf                                         1.00E-06
                        max_scf                                               30
                        DIIS optimization
                        DIIS buffer length                                     3
                        step_size                                       5.00E-01

 -------------------------------------------------------------------------------
 -                                                                             -
 -  BSSE CALCULATION         FRAGMENT CONF: 10        FRAGMENT SUBCONF: 10     -
 -                           CHARGE =     0           MULTIPLICITY =     0     -
 -                                                                             -
 -                 ATOM INDEX                              ATOM NAME           -
 -                 ----------                              ---------           -
 -                      1                                   C                  -
 -                      2                                   C                  -
 -                      3                                   C                  -
 -                      4                                   C                  -
 -                      5                                   C                  -
 -                      6                                   C                  -
 -                      7                                   C                  -
 -                      8                                   C                  -
 -                      9                                   C                  -
 -                     10                                   C                  -
 -                     11                                   C                  -
 -                     12                                   C                  -
 -                     13                                   C                  -
 -                     14                                   C                  -
 -                     15                                   C                  -
 -                     16                                   C                  -
 -                     17                                   C                  -
 -                     18                                   C                  -
 -                     19                                   C                  -
 -                     20                                   C                  -
 -                     21                                   C                  -
 -                     22                                   C                  -
 -                     23                                   C                  -
 -                     24                                   C                  -
 -                     25                                   C                  -
 -                     26                                   C                  -
 -                     27                                   C                  -
 -                     28                                   C                  -
 -                     29                                   C                  -
 -                     30                                   C                  -
 -                     31                                   C                  -
 -                     32                                   C                  -
 -                     33                                   C                  -
 -                     34                                   C                  -
 -                     35                                   C                  -
 -                     36                                   C                  -
 -                     37                                   C                  -
 -                     38                                   C                  -
 -                     39                                   C                  -
 -                     40                                   C                  -
 -                     41                                   C                  -
 -                     42                                   C                  -
 -                     43                                   C                  -
 -                     44                                   C                  -
 -                     45                                   C                  -
 -                     46                                   C                  -
 -                     47                                   C                  -
 -                     48                                   C                  -
 -                     49                                   C                  -
 -                     50                                   C                  -
 -                     51                                   C                  -
 -                     52                                   C                  -
 -                     53                                   C                  -
 -                     54                                   C                  -
 -                     55                                   C                  -
 -                     56                                   C                  -
 -                     57                                   C                  -
 -                     58                                   C                  -
 -                     59                                   C                  -
 -                     60                                   C                  -
 -                     61                                   C                  -
 -                     62                                   C                  -
 -                     63                                   C                  -
 -                     64                                   C                  -
 -                     65                                   C                  -
 -                     66                                   C                  -
 -                     67                                   C                  -
 -                     68                                   C                  -
 -                     69                                   C                  -
 -                     70                                   C                  -
 -                     71                                   C                  -
 -                     72                                   C                  -
 -                     73                                   C                  -
 -                     74                                   C                  -
 -                     75                                   C                  -
 -                     76                                   C                  -
 -                     77                                   C                  -
 -                     78                                   C                  -
 -                     79                                   C                  -
 -                     80                                   C                  -
 -                     81                                   C                  -
 -                     82                                   C                  -
 -                     83                                   C                  -
 -                     84                                   C                  -
 -                     85                                   C                  -
 -                     86                                   C                  -
 -                     87                                   C                  -
 -                     88                                   C                  -
 -                     89                                   C                  -
 -                     90                                   C                  -
 -                     91                                   C                  -
 -                     92                                   C                  -
 -                     93                                   C                  -
 -                     94                                   C                  -
 -                     95                                   C                  -
 -                     96                                   C                  -
 -                     97                                   C                  -
 -                     98                                   C                  -
 -                     99                                   C                  -
 -                    100                                   C                  -
 -                    101                                   C                  -
 -                    102                                   C                  -
 -                    103                                   C                  -
 -                    104                                   C                  -
 -                    105                                   C                  -
 -                    106                                   C                  -
 -                    107                                   C                  -
 -                    108                                   C                  -
 -                    109                                   C                  -
 -                    110                                   C                  -
 -                    111                                   C                  -
 -                    112                                   C                  -
 -                    113                                   C                  -
 -                    114                                   C                  -
 -                    115                                   C                  -
 -                    116                                   C                  -
 -                    117                                   C                  -
 -                    118                                   C                  -
 -                    119                                   C                  -
 -                    120                                   C                  -
 -                    121                                   C                  -
 -                    122                                   C                  -
 -                    123                                   C                  -
 -                    124                                   C                  -
 -                    125                                   C                  -
 -                    126                                   C                  -
 -                    127                                   C                  -
 -                    128                                   C                  -
 -                    129                                   C                  -
 -                    130                                   C                  -
 -                    131                                   C                  -
 -                    132                                   C                  -
 -                    133                                   C                  -
 -                    134                                   C                  -
 -                    135                                   C                  -
 -                    136                                   C                  -
 -                    137                                   C                  -
 -                    138                                   C                  -
 -                    139                                   C                  -
 -                    140                                   C                  -
 -                    141                                   C                  -
 -                    142                                   C                  -
 -                    143                                   C                  -
 -                    144                                   C                  -
 -                    145                                   C                  -
 -                    146                                   C                  -
 -                    147                                   C                  -
 -                    148                                   C                  -
 -                    149                                   C                  -
 -                    150                                   C                  -
 -                    151                                   C                  -
 -                    152                                   C                  -
 -                    153                                   C                  -
 -                    154                                   C                  -
 -                    155                                   C                  -
 -                    156                                   C                  -
 -                    157                                   C                  -
 -                    158                                   C                  -
 -                    159                                   C                  -
 -                    160                                   C                  -
 -                    161                                   C                  -
 -                    162                                   C                  -
 -                    163                                   C                  -
 -                    164                                   C                  -
 -                    165                                   C                  -
 -                    166                                   C                  -
 -                    167                                   C                  -
 -                    168                                   C                  -
 -                    169                                   C                  -
 -                    170                                   C                  -
 -                    171                                   C                  -
 -                    172                                   C                  -
 -                    173                                   C                  -
 -                    174                                   C                  -
 -                    175                                   C                  -
 -                    176                                   C                  -
 -                    177                                   C                  -
 -                    178                                   C                  -
 -                    179                                   C                  -
 -                    180                                   C                  -
 -                    181                                   C                  -
 -                    182                                   C                  -
 -                    183                                   C                  -
 -                    184                                   C                  -
 -                    185                                   C                  -
 -                    186                                   C                  -
 -                    187                                   C                  -
 -                    188                                   C                  -
 -                    189                                   C                  -
 -                    190                                   C                  -
 -                    191                                   C                  -
 -                    192                                   C                  -
 -                    193                                   C                  -
 -                    194                                   C                  -
 -                    195                                   C                  -
 -                    196                                   C                  -
 -                    197                                   C                  -
 -                    198                                   C                  -
 -                    199                                   C                  -
 -                    200                                   C                  -
 -                    201                                   C                  -
 -                    202                                   C                  -
 -                    203                                   C                  -
 -                    204                                   C                  -
 -                    205                                   C                  -
 -                    206                                   C                  -
 -                    207                                   C                  -
 -                    208                                   C                  -
 -                    209                                   C                  -
 -                    210                                   C                  -
 -                    211                                   C                  -
 -                    212                                   C                  -
 -                    213                                   C                  -
 -                    214                                   C                  -
 -                    215                                   C                  -
 -                    216                                   C                  -
 -                    217                                   C                  -
 -                    218                                   C                  -
 -                    219                                   C                  -
 -                    220                                   C                  -
 -                    221                                   C                  -
 -                    222                                   C                  -
 -                    223                                   C                  -
 -                    224                                   C                  -
 -------------------------------------------------------------------------------

 *******************************************************************************
 *******************************************************************************
 **                                                                           **
 **     #####                         ##              ##                      **
 **    ##   ##            ##          ##              ##                      **
 **   ##     ##                       ##            ######                    **
 **   ##     ##  ##   ##  ##   #####  ##  ##   ####   ##    #####    #####    **
 **   ##     ##  ##   ##  ##  ##      ## ##   ##      ##   ##   ##  ##   ##   **
 **   ##  ## ##  ##   ##  ##  ##      ####     ###    ##   ######   ######    **
 **    ##  ###   ##   ##  ##  ##      ## ##      ##   ##   ##       ##        **
 **     #######   #####   ##   #####  ##  ##  ####    ##    #####   ##        **
 **           ##                                                    ##        **
 **                                                                           **
 **                                                ... make the atoms dance   **
 **                                                                           **
 **            Copyright (C) by CP2K developers group (2000-2022)             **
 **                      J. Chem. Phys. 152, 194103 (2020)                    **
 **                                                                           **
 *******************************************************************************


 TOTAL NUMBERS AND MAXIMUM NUMBERS

  Total number of            - Atomic kinds:                                   1
                             - Atoms:                                        224
                             - Shell sets:                                   224
                             - Shells:                                      1120
                             - Primitive Cartesian functions:               1120
                             - Cartesian basis functions:                   3136
                             - Spherical basis functions:                   2912

  Maximum angular momentum of- Orbital basis functions:                        2
                             - Local part of the GTH pseudopotential:          2
                             - Non-local part of the GTH pseudopotential:      0


 SCF PARAMETERS         Density guess:                                    ATOMIC
                        --------------------------------------------------------
                        max_scf:                                             100
                        max_scf_history:                                       0
                        max_diis:                                              4
                        --------------------------------------------------------
                        eps_scf:                                        3.00E-07
                        eps_scf_history:                                0.00E+00
                        eps_diis:                                       1.00E-01
                        eps_eigval:                                     1.00E-05
                        --------------------------------------------------------
                        level_shift [a.u.]:                             0.000000
                        added MOs                                       100  100
                        --------------------------------------------------------
                        Mixing method:                            BROYDEN_MIXING
                                                charge density mixing in g-space
                        --------------------------------------------------------
                        Smear method:                                FERMI_DIRAC
                        Electronic temperature [K]:                        300.0
                        Electronic temperature [a.u.]:                  9.50E-04
                        Accuracy threshold:                             1.00E-10
                        --------------------------------------------------------
                        Outer loop SCF in use 
                        No variables optimised in outer loop
                        eps_scf                                         1.00E-06
                        max_scf                                               30
                        DIIS optimization
                        DIIS buffer length                                     3
                        step_size                                       5.00E-01

 Spin 1

 Number of electrons:                                                        448
 Number of occupied orbitals:                                                448
 Number of molecular orbitals:                                               548

 Spin 2

 Number of electrons:                                                        448
 Number of occupied orbitals:                                                448
 Number of molecular orbitals:                                               548

 Number of orbital functions:                                               2912
 Number of independent orbital functions:                                   2912

 Extrapolation method: initial_guess


 SCF WAVEFUNCTION OPTIMIZATION

  Step     Update method      Time    Convergence         Total energy    Change
  ------------------------------------------------------------------------------
     1 NoMix/Diag. 0.10E+00   37.6     0.45064890     -1259.9593779366 -1.26E+03
     2 Broy./Diag. 0.10E+00   42.6     0.00311180     -1203.1842337458  5.68E+01
     3 Broy./Diag. 0.10E+00   44.6     7.52031178     -1248.3435718589 -4.52E+01
     4 Broy./Diag. 0.10E+00   43.3     7.52026657     -1199.4890191335  4.89E+01
     5 Broy./Diag. 0.10E+00   42.8     7.59178350     -1265.8105774812 -6.63E+01
     6 Broy./Diag. 0.10E+00   43.3     7.59178183     -1169.1645685664  9.66E+01
     7 Broy./Diag. 0.10E+00   42.0     7.60638029     -1266.4918538792 -9.73E+01
     8 Broy./Diag. 0.10E+00   44.9     7.60637878     -1108.5749984247  1.58E+02
     9 Broy./Diag. 0.10E+00   47.4     7.60420686     -1266.7036340444 -1.58E+02
    10 Broy./Diag. 0.10E+00   49.7     7.60420477     -1159.1549706976  1.08E+02
    11 Broy./Diag. 0.10E+00   45.5     7.63277523     -1267.0241250564 -1.08E+02
    12 Broy./Diag. 0.10E+00   47.4     7.63277373     -1174.4307546863  9.26E+01
    13 Broy./Diag. 0.10E+00   47.4     6.50715325     -1247.8866770704 -7.35E+01
    14 Broy./Diag. 0.10E+00   48.7     7.63730470     -1267.3444730317 -1.95E+01
    15 Broy./Diag. 0.10E+00   47.8     7.63730437     -1168.8189251000  9.85E+01
    16 Broy./Diag. 0.10E+00   48.0     7.65496797     -1267.4067747783 -9.86E+01
    17 Broy./Diag. 0.10E+00   51.7     7.65481695     -1173.5408960850  9.39E+01
    18 Broy./Diag. 0.10E+00   45.4     7.65793638     -1244.3231864853 -7.08E+01
    19 Broy./Diag. 0.10E+00   49.7     7.63934267     -1267.6268573144 -2.33E+01
    20 Broy./Diag. 0.10E+00   49.7     7.64476488     -1201.4248358667  6.62E+01
    21 Broy./Diag. 0.10E+00   46.8     7.67186841     -1267.6318824740 -6.62E+01
    22 Broy./Diag. 0.10E+00   46.5     7.67184540     -1106.4105133196  1.61E+02
    23 Broy./Diag. 0.10E+00   45.4     7.68366482     -1244.8496423329 -1.38E+02
    24 Broy./Diag. 0.10E+00   45.2     7.67774640     -1267.9988673352 -2.31E+01
    25 Broy./Diag. 0.10E+00   45.7     7.67774377     -1176.2925058155  9.17E+01
    26 Broy./Diag. 0.10E+00   47.4     0.24418338     -1268.0365787753 -9.17E+01
    27 Broy./Diag. 0.10E+00   45.9     0.24413785     -1266.7544395199  1.28E+00
    28 Broy./Diag. 0.10E+00   46.9     7.69061235     -1268.1123660687 -1.36E+00
    29 Broy./Diag. 0.10E+00   46.9     7.69060961     -1241.6911550205  2.64E+01
    30 Broy./Diag. 0.10E+00   46.8     0.64267682     -1268.0280947380 -2.63E+01
    31 Broy./Diag. 0.10E+00   45.3     0.64367042     -1265.1279413022  2.90E+00
    32 Broy./Diag. 0.10E+00   45.3     1.36279896     -1268.2691721472 -3.14E+00
    33 Broy./Diag. 0.10E+00   45.5     1.36279377     -1263.8551123948  4.41E+00
    34 Broy./Diag. 0.10E+00   45.7     0.08595311     -1268.1759125242 -4.32E+00
    35 Broy./Diag. 0.10E+00   48.7     0.08540742     -1268.2006384084 -2.47E-02
    36 Broy./Diag. 0.10E+00   46.6     0.03879706     -1268.4057224913 -2.05E-01
    37 Broy./Diag. 0.10E+00   47.0     0.01865842     -1268.4471830929 -4.15E-02
    38 Broy./Diag. 0.10E+00   49.3     0.00355720     -1268.4615645942 -1.44E-02
    39 Broy./Diag. 0.10E+00   46.9     7.52440002     -1268.9218454900 -4.60E-01
    40 Broy./Diag. 0.10E+00   47.0     7.52439964     -1246.5148130467  2.24E+01
    41 Broy./Diag. 0.10E+00   48.2     6.75736979     -1249.0172482185 -2.50E+00
    42 Broy./Diag. 0.10E+00   46.9     0.00187369     -1268.8727542546 -1.99E+01
    43 Broy./Diag. 0.10E+00   47.4     0.00069749     -1269.2182338220 -3.45E-01
    44 Broy./Diag. 0.10E+00   47.1     7.70920052     -1269.4630368394 -2.45E-01
    45 Broy./Diag. 0.10E+00   48.8     7.70919911     -1246.5982081913  2.29E+01
    46 Broy./Diag. 0.10E+00   48.0     0.00284790     -1269.6096103054 -2.30E+01
    47 Broy./Diag. 0.10E+00   47.2     0.00362405     -1269.7159188020 -1.06E-01
    48 Broy./Diag. 0.10E+00   47.7     0.01991109     -1269.7542520211 -3.83E-02
    49 Broy./Diag. 0.10E+00   48.2     0.01708253     -1269.8368102319 -8.26E-02
    50 Broy./Diag. 0.10E+00   46.7     0.00258000     -1269.9377005299 -1.01E-01
    51 Broy./Diag. 0.10E+00   44.8     0.00027707     -1269.9664126798 -2.87E-02
    52 Broy./Diag. 0.10E+00   47.9     0.00271228     -1269.9695537017 -3.14E-03
    53 Broy./Diag. 0.10E+00   51.2     0.00358879     -1269.9722251775 -2.67E-03
    54 Broy./Diag. 0.10E+00   47.3     0.00251180     -1269.9734760898 -1.25E-03
    55 Broy./Diag. 0.10E+00   46.2     0.00051707     -1269.9782595629 -4.78E-03
    56 Broy./Diag. 0.10E+00   56.0     0.00018407     -1269.9849170134 -6.66E-03
    57 Broy./Diag. 0.10E+00   47.3     0.00023539     -1269.9926696975 -7.75E-03
    58 Broy./Diag. 0.10E+00   45.6     0.00002368     -1269.9933993278 -7.30E-04
    59 Broy./Diag. 0.10E+00   45.3     0.00007251     -1269.9844481761  8.95E-03
    60 Broy./Diag. 0.10E+00   48.0     0.00014830     -1269.9821844645  2.26E-03
    61 Broy./Diag. 0.10E+00   48.1     0.00005897     -1269.9906237892 -8.44E-03
    62 Broy./Diag. 0.10E+00   50.6     0.00021907     -1270.0045906806 -1.40E-02
    63 Broy./Diag. 0.10E+00   57.3     0.00003095     -1270.0187864999 -1.42E-02
    64 Broy./Diag. 0.10E+00   57.6     0.00004533     -1270.0215544859 -2.77E-03
    65 Broy./Diag. 0.10E+00   58.2     0.00003533     -1270.0253554876 -3.80E-03
    66 Broy./Diag. 0.10E+00   56.6     0.00003715     -1270.0263997183 -1.04E-03
    67 Broy./Diag. 0.10E+00   53.2     0.00002360     -1270.0262713715  1.28E-04
    68 Broy./Diag. 0.10E+00   47.2     0.00002675     -1270.0266972214 -4.26E-04
    69 Broy./Diag. 0.10E+00   49.0     0.00001306     -1270.0274154827 -7.18E-04
    70 Broy./Diag. 0.10E+00   49.9     0.00001360     -1270.0265412951  8.74E-04
    71 Broy./Diag. 0.10E+00   46.5     0.00000753     -1270.0252131421  1.33E-03
    72 Broy./Diag. 0.10E+00   45.3     0.00001473     -1270.0247579029  4.55E-04
    73 Broy./Diag. 0.10E+00   45.1     0.00000373     -1270.0252205562 -4.63E-04
    74 Broy./Diag. 0.10E+00   46.4     0.00000634     -1270.0256346431 -4.14E-04
    75 Broy./Diag. 0.10E+00   45.7     0.00000695     -1270.0259054244 -2.71E-04
    76 Broy./Diag. 0.10E+00   47.1     0.00000329     -1270.0258640689  4.14E-05
    77 Broy./Diag. 0.10E+00   46.7     0.00000137     -1270.0259172624 -5.32E-05
    78 Broy./Diag. 0.10E+00   46.3     0.00000525     -1270.0258048505  1.12E-04
    79 Broy./Diag. 0.10E+00   47.2     0.00000315     -1270.0256815353  1.23E-04
    80 Broy./Diag. 0.10E+00   48.3     0.00000205     -1270.0256738551  7.68E-06
    81 Broy./Diag. 0.10E+00   46.4     0.00000075     -1270.0256755049 -1.65E-06
    82 Broy./Diag. 0.10E+00   50.1     0.00000101     -1270.0256226532  5.29E-05
    83 Broy./Diag. 0.10E+00   49.5     0.00000130     -1270.0256102500  1.24E-05
    84 Broy./Diag. 0.10E+00   52.9     0.00000052     -1270.0256790785 -6.88E-05
    85 Broy./Diag. 0.10E+00   50.2     0.00000128     -1270.0257694922 -9.04E-05
    86 Broy./Diag. 0.10E+00   50.6     0.00000042     -1270.0258463253 -7.68E-05
    87 Broy./Diag. 0.10E+00   50.3     0.00000072     -1270.0258904298 -4.41E-05
    88 Broy./Diag. 0.10E+00   49.5     0.00000021     -1270.0259187183 -2.83E-05

  *** SCF run converged in    88 steps ***


  Electronic density on regular grids:       -895.9999999996        0.0000000004
  Core density on regular grids:              895.9999999992       -0.0000000008
  Total charge density on r-space grids:       -0.0000000004
  Total charge density g-space grids:          -0.0000000004

  Overlap energy of the core charge distribution:               0.00003981593630
  Self energy of the core charge distribution:              -2990.62154893316665
  Core Hamiltonian energy:                                    943.84903702727479
  Hartree energy:                                            1163.11221973323609
  Exchange-correlation energy:                               -385.58332990239421
  Dispersion energy:                                           -0.78233645894050
  Electronic entropic energy:                                  -0.00000000023972
  Fermi energy:                                                -0.06419617756106

  Total energy:                                             -1270.02591871829395

  outer SCF iter =    1 RMS gradient =   0.21E-06 energy =      -1270.0259187183
  outer SCF loop converged in   1 iterations or   88 steps


  Integrated absolute spin density  :                               0.0000000000
  WARNING: S**2 computation does not yet treat fractional occupied orbitals

 *** WARNING in qs_loc_utils.F:1500 :: User requested the calculation of ***
 *** the localized wavefunction but the section LOCALIZE was not         ***
 *** specified. Localization will not be performed!                      ***


 -------------------------------------------------------------------------------
 -                                                                             -
 -  BSSE CALCULATION         FRAGMENT CONF: 01        FRAGMENT SUBCONF: 01     -
 -                           CHARGE =     0           MULTIPLICITY =     0     -
 -                                                                             -
 -                 ATOM INDEX                              ATOM NAME           -
 -                 ----------                              ---------           -
 -                    225                                   Na                 -
 -------------------------------------------------------------------------------

 *******************************************************************************
 *******************************************************************************
 **                                                                           **
 **     #####                         ##              ##                      **
 **    ##   ##            ##          ##              ##                      **
 **   ##     ##                       ##            ######                    **
 **   ##     ##  ##   ##  ##   #####  ##  ##   ####   ##    #####    #####    **
 **   ##     ##  ##   ##  ##  ##      ## ##   ##      ##   ##   ##  ##   ##   **
 **   ##  ## ##  ##   ##  ##  ##      ####     ###    ##   ######   ######    **
 **    ##  ###   ##   ##  ##  ##      ## ##      ##   ##   ##       ##        **
 **     #######   #####   ##   #####  ##  ##  ####    ##    #####   ##        **
 **           ##                                                    ##        **
 **                                                                           **
 **                                                ... make the atoms dance   **
 **                                                                           **
 **            Copyright (C) by CP2K developers group (2000-2022)             **
 **                      J. Chem. Phys. 152, 194103 (2020)                    **
 **                                                                           **
 *******************************************************************************

 *** WARNING in qs_environment.F:1470 :: More ADDED_MOs requested for beta ***
 *** spin than available.                                                  ***


 *** WARNING in qs_environment.F:1486 :: More added MOs requested than     ***
 *** available. The full set of unoccupied MOs will be used. Use           ***
 *** 'ADDED_MOS -1' to always use all available MOs and to get rid of this ***
 *** warning.                                                              ***



 TOTAL NUMBERS AND MAXIMUM NUMBERS

  Total number of            - Atomic kinds:                                   1
                             - Atoms:                                          1
                             - Shell sets:                                     1
                             - Shells:                                         5
                             - Primitive Cartesian functions:                  7
                             - Cartesian basis functions:                      9
                             - Spherical basis functions:                      9

  Maximum angular momentum of- Orbital basis functions:                        1
                             - Local part of the GTH pseudopotential:          2
                             - Non-local part of the GTH pseudopotential:      1


 SCF PARAMETERS         Density guess:                                    ATOMIC
                        --------------------------------------------------------
                        max_scf:                                             100
                        max_scf_history:                                       0
                        max_diis:                                              4
                        --------------------------------------------------------
                        eps_scf:                                        3.00E-07
                        eps_scf_history:                                0.00E+00
                        eps_diis:                                       1.00E-01
                        eps_eigval:                                     1.00E-05
                        --------------------------------------------------------
                        level_shift [a.u.]:                             0.000000
                        added MOs                                         4    5
                        --------------------------------------------------------
                        Mixing method:                            BROYDEN_MIXING
                                                charge density mixing in g-space
                        --------------------------------------------------------
                        Smear method:                                FERMI_DIRAC
                        Electronic temperature [K]:                        300.0
                        Electronic temperature [a.u.]:                  9.50E-04
                        Accuracy threshold:                             1.00E-10
                        --------------------------------------------------------
                        Outer loop SCF in use 
                        No variables optimised in outer loop
                        eps_scf                                         1.00E-06
                        max_scf                                               30
                        DIIS optimization
                        DIIS buffer length                                     3
                        step_size                                       5.00E-01

 Spin 1

 Number of electrons:                                                          5
 Number of occupied orbitals:                                                  5
 Number of molecular orbitals:                                                 9

 Spin 2

 Number of electrons:                                                          4
 Number of occupied orbitals:                                                  4
 Number of molecular orbitals:                                                 9

 Number of orbital functions:                                                  9
 Number of independent orbital functions:                                      9

 Extrapolation method: initial_guess


 SCF WAVEFUNCTION OPTIMIZATION

  Step     Update method      Time    Convergence         Total energy    Change
  ------------------------------------------------------------------------------
     1 NoMix/Diag. 0.10E+00    1.7     0.36461941       -47.1584058416 -4.72E+01
     2 Broy./Diag. 0.10E+00    3.9     0.01251725       -47.1305196812  2.79E-02
     3 Broy./Diag. 0.10E+00    4.6     0.06959596       -47.1546958806 -2.42E-02
     4 Broy./Diag. 0.10E+00    4.3     0.00060994       -47.1381984290  1.65E-02
     5 Broy./Diag. 0.10E+00    4.2     0.00325088       -47.1503127002 -1.21E-02
     6 Broy./Diag. 0.10E+00    4.5     0.00252653       -47.1479271901  2.39E-03
     7 Broy./Diag. 0.10E+00    4.8     0.00965148       -47.1481516335 -2.24E-04
     8 Broy./Diag. 0.10E+00    4.7     0.00393090       -47.1552334373 -7.08E-03
     9 Broy./Diag. 0.10E+00    6.4     0.00253376       -47.1585248729 -3.29E-03
    10 Broy./Diag. 0.10E+00    5.0     0.00456320       -47.1588123392 -2.87E-04
    11 Broy./Diag. 0.10E+00    4.8     0.00208335       -47.1656251778 -6.81E-03
    12 Broy./Diag. 0.10E+00    5.2     0.00183910       -47.1657392684 -1.14E-04
    13 Broy./Diag. 0.10E+00    4.7     0.00082231       -47.1707077179 -4.97E-03
    14 Broy./Diag. 0.10E+00    5.1     0.00133138       -47.1661010747  4.61E-03
    15 Broy./Diag. 0.10E+00    4.7     0.00025879       -47.1614965424  4.60E-03
    16 Broy./Diag. 0.10E+00    4.7     0.00033885       -47.1578857485  3.61E-03
    17 Broy./Diag. 0.10E+00    5.1     0.00012586       -47.1537879155  4.10E-03
    18 Broy./Diag. 0.10E+00    5.3     0.00032575       -47.1522790665  1.51E-03
    19 Broy./Diag. 0.10E+00    4.8     0.00011403       -47.1506256334  1.65E-03
    20 Broy./Diag. 0.10E+00    6.3     0.00006433       -47.1514926098 -8.67E-04
    21 Broy./Diag. 0.10E+00    4.9     0.00010720       -47.1524430498 -9.50E-04
    22 Broy./Diag. 0.10E+00    4.7     0.00010544       -47.1525851387 -1.42E-04
    23 Broy./Diag. 0.10E+00    4.9     0.00022746       -47.1483467610  4.24E-03
    24 Broy./Diag. 0.10E+00    5.0     0.00003236       -47.1477675318  5.79E-04
    25 Broy./Diag. 0.10E+00    5.1     0.00010996       -47.1486633197 -8.96E-04
    26 Broy./Diag. 0.10E+00    4.8     0.00007590       -47.1499064715 -1.24E-03
    27 Broy./Diag. 0.10E+00    4.6     0.00004367       -47.1495985925  3.08E-04
    28 Broy./Diag. 0.10E+00    4.8     0.00009213       -47.1494557003  1.43E-04
    29 Broy./Diag. 0.10E+00    4.7     0.00002681       -47.1499589729 -5.03E-04
    30 Broy./Diag. 0.10E+00    5.1     0.00002892       -47.1509199231 -9.61E-04
    31 Broy./Diag. 0.10E+00    6.3     0.00005852       -47.1492717443  1.65E-03
    32 Broy./Diag. 0.10E+00    4.8     0.00002043       -47.1493353726 -6.36E-05
    33 Broy./Diag. 0.10E+00    5.0     0.00004104       -47.1493638297 -2.85E-05
    34 Broy./Diag. 0.10E+00    4.7     0.00002844       -47.1491987521  1.65E-04
    35 Broy./Diag. 0.10E+00    4.7     0.00001683       -47.1493980026 -1.99E-04
    36 Broy./Diag. 0.10E+00    4.7     0.00002099       -47.1494305898 -3.26E-05
    37 Broy./Diag. 0.10E+00    4.9     0.00001239       -47.1491379400  2.93E-04
    38 Broy./Diag. 0.10E+00    4.7     0.00003602       -47.1491302859  7.65E-06
    39 Broy./Diag. 0.10E+00    4.9     0.00001575       -47.1486310398  4.99E-04
    40 Broy./Diag. 0.10E+00    4.8     0.00000482       -47.1486778159 -4.68E-05
    41 Broy./Diag. 0.10E+00    5.0     0.00002662       -47.1489158724 -2.38E-04
    42 Broy./Diag. 0.10E+00    4.8     0.00000270       -47.1490518621 -1.36E-04
    43 Broy./Diag. 0.10E+00    5.9     0.00000304       -47.1491554346 -1.04E-04
    44 Broy./Diag. 0.10E+00    5.4     0.00000464       -47.1491370194  1.84E-05
    45 Broy./Diag. 0.10E+00    5.0     0.00000379       -47.1490242071  1.13E-04
    46 Broy./Diag. 0.10E+00    4.9     0.00000175       -47.1489855133  3.87E-05
    47 Broy./Diag. 0.10E+00    4.7     0.00000627       -47.1490262263 -4.07E-05
    48 Broy./Diag. 0.10E+00    4.8     0.00000371       -47.1490391519 -1.29E-05
    49 Broy./Diag. 0.10E+00    4.8     0.00000630       -47.1489989167  4.02E-05
    50 Broy./Diag. 0.10E+00    4.6     0.00000334       -47.1490234244 -2.45E-05
    51 Broy./Diag. 0.10E+00    4.7     0.00000128       -47.1489927705  3.07E-05
    52 Broy./Diag. 0.10E+00    4.8     0.00000109       -47.1489925849  1.86E-07
    53 Broy./Diag. 0.10E+00    4.9     0.00000383       -47.1490224562 -2.99E-05
    54 Broy./Diag. 0.10E+00    4.9     0.00000193       -47.1490215203  9.36E-07
    55 Broy./Diag. 0.10E+00    5.8     0.00000034       -47.1490192046  2.32E-06
    56 Broy./Diag. 0.10E+00    5.3     0.00000127       -47.1490356642 -1.65E-05
    57 Broy./Diag. 0.10E+00    5.1     0.00000084       -47.1490262413  9.42E-06
    58 Broy./Diag. 0.10E+00    4.7     0.00000121       -47.1490194176  6.82E-06
    59 Broy./Diag. 0.10E+00    4.7     0.00000049       -47.1490193486  6.90E-08
    60 Broy./Diag. 0.10E+00    5.0     0.00000156       -47.1490335539 -1.42E-05
    61 Broy./Diag. 0.10E+00    4.7     0.00000055       -47.1490256856  7.87E-06
    62 Broy./Diag. 0.10E+00    4.8     0.00000121       -47.1490203793  5.31E-06
    63 Broy./Diag. 0.10E+00    4.7     0.00000166       -47.1490229608 -2.58E-06
    64 Broy./Diag. 0.10E+00    4.9     0.00000039       -47.1490179308  5.03E-06
    65 Broy./Diag. 0.10E+00    4.9     0.00000028       -47.1490107243  7.21E-06

  *** SCF run converged in    65 steps ***


  Electronic density on regular grids:         -9.0001354038       -0.0001354038
  Core density on regular grids:                9.0000000000       -0.0000000000
  Total charge density on r-space grids:       -0.0001354038
  Total charge density g-space grids:          -0.0001354038

  Overlap energy of the core charge distribution:               0.00000000000000
  Self energy of the core charge distribution:                -97.66279648848419
  Core Hamiltonian energy:                                     29.97628913943080
  Hartree energy:                                              27.58007592279535
  Exchange-correlation energy:                                 -7.04257611898063
  Dispersion energy:                                           -0.00000317792349
  Electronic entropic energy:                                  -0.00000000111644
  Fermi energy:                                                -0.08400757805443

  Total energy:                                               -47.14901072428333

  outer SCF iter =    1 RMS gradient =   0.28E-06 energy =        -47.1490107243
  outer SCF loop converged in   1 iterations or   65 steps


  Integrated absolute spin density  :                               1.0000142894
  WARNING: S**2 computation does not yet treat fractional occupied orbitals

 *** WARNING in qs_loc_utils.F:1500 :: User requested the calculation of ***
 *** the localized wavefunction but the section LOCALIZE was not         ***
 *** specified. Localization will not be performed!                      ***


 -------------------------------------------------------------------------------
 -                                                                             -
 -  BSSE CALCULATION         FRAGMENT CONF: 11        FRAGMENT SUBCONF: 10     -
 -                           CHARGE =     0           MULTIPLICITY =     0     -
 -                                                                             -
 -                 ATOM INDEX                              ATOM NAME           -
 -                 ----------                              ---------           -
 -                      1                                   C                  -
 -                      2                                   C                  -
 -                      3                                   C                  -
 -                      4                                   C                  -
 -                      5                                   C                  -
 -                      6                                   C                  -
 -                      7                                   C                  -
 -                      8                                   C                  -
 -                      9                                   C                  -
 -                     10                                   C                  -
 -                     11                                   C                  -
 -                     12                                   C                  -
 -                     13                                   C                  -
 -                     14                                   C                  -
 -                     15                                   C                  -
 -                     16                                   C                  -
 -                     17                                   C                  -
 -                     18                                   C                  -
 -                     19                                   C                  -
 -                     20                                   C                  -
 -                     21                                   C                  -
 -                     22                                   C                  -
 -                     23                                   C                  -
 -                     24                                   C                  -
 -                     25                                   C                  -
 -                     26                                   C                  -
 -                     27                                   C                  -
 -                     28                                   C                  -
 -                     29                                   C                  -
 -                     30                                   C                  -
 -                     31                                   C                  -
 -                     32                                   C                  -
 -                     33                                   C                  -
 -                     34                                   C                  -
 -                     35                                   C                  -
 -                     36                                   C                  -
 -                     37                                   C                  -
 -                     38                                   C                  -
 -                     39                                   C                  -
 -                     40                                   C                  -
 -                     41                                   C                  -
 -                     42                                   C                  -
 -                     43                                   C                  -
 -                     44                                   C                  -
 -                     45                                   C                  -
 -                     46                                   C                  -
 -                     47                                   C                  -
 -                     48                                   C                  -
 -                     49                                   C                  -
 -                     50                                   C                  -
 -                     51                                   C                  -
 -                     52                                   C                  -
 -                     53                                   C                  -
 -                     54                                   C                  -
 -                     55                                   C                  -
 -                     56                                   C                  -
 -                     57                                   C                  -
 -                     58                                   C                  -
 -                     59                                   C                  -
 -                     60                                   C                  -
 -                     61                                   C                  -
 -                     62                                   C                  -
 -                     63                                   C                  -
 -                     64                                   C                  -
 -                     65                                   C                  -
 -                     66                                   C                  -
 -                     67                                   C                  -
 -                     68                                   C                  -
 -                     69                                   C                  -
 -                     70                                   C                  -
 -                     71                                   C                  -
 -                     72                                   C                  -
 -                     73                                   C                  -
 -                     74                                   C                  -
 -                     75                                   C                  -
 -                     76                                   C                  -
 -                     77                                   C                  -
 -                     78                                   C                  -
 -                     79                                   C                  -
 -                     80                                   C                  -
 -                     81                                   C                  -
 -                     82                                   C                  -
 -                     83                                   C                  -
 -                     84                                   C                  -
 -                     85                                   C                  -
 -                     86                                   C                  -
 -                     87                                   C                  -
 -                     88                                   C                  -
 -                     89                                   C                  -
 -                     90                                   C                  -
 -                     91                                   C                  -
 -                     92                                   C                  -
 -                     93                                   C                  -
 -                     94                                   C                  -
 -                     95                                   C                  -
 -                     96                                   C                  -
 -                     97                                   C                  -
 -                     98                                   C                  -
 -                     99                                   C                  -
 -                    100                                   C                  -
 -                    101                                   C                  -
 -                    102                                   C                  -
 -                    103                                   C                  -
 -                    104                                   C                  -
 -                    105                                   C                  -
 -                    106                                   C                  -
 -                    107                                   C                  -
 -                    108                                   C                  -
 -                    109                                   C                  -
 -                    110                                   C                  -
 -                    111                                   C                  -
 -                    112                                   C                  -
 -                    113                                   C                  -
 -                    114                                   C                  -
 -                    115                                   C                  -
 -                    116                                   C                  -
 -                    117                                   C                  -
 -                    118                                   C                  -
 -                    119                                   C                  -
 -                    120                                   C                  -
 -                    121                                   C                  -
 -                    122                                   C                  -
 -                    123                                   C                  -
 -                    124                                   C                  -
 -                    125                                   C                  -
 -                    126                                   C                  -
 -                    127                                   C                  -
 -                    128                                   C                  -
 -                    129                                   C                  -
 -                    130                                   C                  -
 -                    131                                   C                  -
 -                    132                                   C                  -
 -                    133                                   C                  -
 -                    134                                   C                  -
 -                    135                                   C                  -
 -                    136                                   C                  -
 -                    137                                   C                  -
 -                    138                                   C                  -
 -                    139                                   C                  -
 -                    140                                   C                  -
 -                    141                                   C                  -
 -                    142                                   C                  -
 -                    143                                   C                  -
 -                    144                                   C                  -
 -                    145                                   C                  -
 -                    146                                   C                  -
 -                    147                                   C                  -
 -                    148                                   C                  -
 -                    149                                   C                  -
 -                    150                                   C                  -
 -                    151                                   C                  -
 -                    152                                   C                  -
 -                    153                                   C                  -
 -                    154                                   C                  -
 -                    155                                   C                  -
 -                    156                                   C                  -
 -                    157                                   C                  -
 -                    158                                   C                  -
 -                    159                                   C                  -
 -                    160                                   C                  -
 -                    161                                   C                  -
 -                    162                                   C                  -
 -                    163                                   C                  -
 -                    164                                   C                  -
 -                    165                                   C                  -
 -                    166                                   C                  -
 -                    167                                   C                  -
 -                    168                                   C                  -
 -                    169                                   C                  -
 -                    170                                   C                  -
 -                    171                                   C                  -
 -                    172                                   C                  -
 -                    173                                   C                  -
 -                    174                                   C                  -
 -                    175                                   C                  -
 -                    176                                   C                  -
 -                    177                                   C                  -
 -                    178                                   C                  -
 -                    179                                   C                  -
 -                    180                                   C                  -
 -                    181                                   C                  -
 -                    182                                   C                  -
 -                    183                                   C                  -
 -                    184                                   C                  -
 -                    185                                   C                  -
 -                    186                                   C                  -
 -                    187                                   C                  -
 -                    188                                   C                  -
 -                    189                                   C                  -
 -                    190                                   C                  -
 -                    191                                   C                  -
 -                    192                                   C                  -
 -                    193                                   C                  -
 -                    194                                   C                  -
 -                    195                                   C                  -
 -                    196                                   C                  -
 -                    197                                   C                  -
 -                    198                                   C                  -
 -                    199                                   C                  -
 -                    200                                   C                  -
 -                    201                                   C                  -
 -                    202                                   C                  -
 -                    203                                   C                  -
 -                    204                                   C                  -
 -                    205                                   C                  -
 -                    206                                   C                  -
 -                    207                                   C                  -
 -                    208                                   C                  -
 -                    209                                   C                  -
 -                    210                                   C                  -
 -                    211                                   C                  -
 -                    212                                   C                  -
 -                    213                                   C                  -
 -                    214                                   C                  -
 -                    215                                   C                  -
 -                    216                                   C                  -
 -                    217                                   C                  -
 -                    218                                   C                  -
 -                    219                                   C                  -
 -                    220                                   C                  -
 -                    221                                   C                  -
 -                    222                                   C                  -
 -                    223                                   C                  -
 -                    224                                   C                  -
 -                    225                                   Na_ghost           -
 -------------------------------------------------------------------------------

 *******************************************************************************
 *******************************************************************************
 **                                                                           **
 **     #####                         ##              ##                      **
 **    ##   ##            ##          ##              ##                      **
 **   ##     ##                       ##            ######                    **
 **   ##     ##  ##   ##  ##   #####  ##  ##   ####   ##    #####    #####    **
 **   ##     ##  ##   ##  ##  ##      ## ##   ##      ##   ##   ##  ##   ##   **
 **   ##  ## ##  ##   ##  ##  ##      ####     ###    ##   ######   ######    **
 **    ##  ###   ##   ##  ##  ##      ## ##      ##   ##   ##       ##        **
 **     #######   #####   ##   #####  ##  ##  ####    ##    #####   ##        **
 **           ##                                                    ##        **
 **                                                                           **
 **                                                ... make the atoms dance   **
 **                                                                           **
 **            Copyright (C) by CP2K developers group (2000-2022)             **
 **                      J. Chem. Phys. 152, 194103 (2020)                    **
 **                                                                           **
 *******************************************************************************


 TOTAL NUMBERS AND MAXIMUM NUMBERS

  Total number of            - Atomic kinds:                                   2
                             - Atoms:                                        225
                             - Shell sets:                                   225
                             - Shells:                                      1125
                             - Primitive Cartesian functions:               1127
                             - Cartesian basis functions:                   3145
                             - Spherical basis functions:                   2921

  Maximum angular momentum of- Orbital basis functions:                        2
                             - Local part of the GTH pseudopotential:          2
                             - Non-local part of the GTH pseudopotential:      0


 SCF PARAMETERS         Density guess:                                    ATOMIC
                        --------------------------------------------------------
                        max_scf:                                             100
                        max_scf_history:                                       0
                        max_diis:                                              4
                        --------------------------------------------------------
                        eps_scf:                                        3.00E-07
                        eps_scf_history:                                0.00E+00
                        eps_diis:                                       1.00E-01
                        eps_eigval:                                     1.00E-05
                        --------------------------------------------------------
                        level_shift [a.u.]:                             0.000000
                        added MOs                                       100  100
                        --------------------------------------------------------
                        Mixing method:                            BROYDEN_MIXING
                                                charge density mixing in g-space
                        --------------------------------------------------------
                        Smear method:                                FERMI_DIRAC
                        Electronic temperature [K]:                        300.0
                        Electronic temperature [a.u.]:                  9.50E-04
                        Accuracy threshold:                             1.00E-10
                        --------------------------------------------------------
                        Outer loop SCF in use 
[...]
  Total charge density g-space grids:          -0.0001384834

  Overlap energy of the core charge distribution:               0.00003981593630
  Self energy of the core charge distribution:              -3088.28434542165087
  Core Hamiltonian energy:                                    974.82926109735092
  Hartree energy:                                            1190.07919243678521
  Exchange-correlation energy:                               -392.97455048838532
  Dispersion energy:                                           -0.79316201525677
  Electronic entropic energy:                                  -0.00215005089673
  Fermi energy:                                                -0.04616417631879

  Total energy:                                             -1317.14571462609433

  outer SCF iter =    2 RMS gradient =   0.29E-06 energy =      -1317.1457146261
  outer SCF loop converged in   2 iterations or  127 steps


  Integrated absolute spin density  :                               0.0000746529
  WARNING: S**2 computation does not yet treat fractional occupied orbitals

 *** WARNING in qs_loc_utils.F:1500 :: User requested the calculation of ***
 *** the localized wavefunction but the section LOCALIZE was not         ***
 *** specified. Localization will not be performed!                      ***


 -------------------------------------------------------------------------------
 -                                                                             -
 -                                 BSSE RESULTS                                -
 -                                                                             -
 -                 CP-corrected Total energy:    -1317.141115                  -
 -                                                                             -
 -                       1-body contribution:    -1270.025919                  -
 -                       1-body contribution:      -47.149011                  -
 -                                                                             -
 -                       2-body contribution:        0.033814                  -
 -                 BSSE-free interaction energy:        0.033814               -
 -------------------------------------------------------------------------------

 -------------------------------------------------------------------------------
 -                                                                             -
 -                                DBCSR STATISTICS                             -
 -                                                                             -
 -------------------------------------------------------------------------------
 COUNTER                                    TOTAL       BLAS       SMM       ACC
 flops     9 x     9 x     8               121824     100.0%      0.0%      0.0%
 flops     9 x     9 x     9               326592     100.0%      0.0%      0.0%
 flops     9 x     9 x   136              2798064     100.0%      0.0%      0.0%
 flops     9 x     9 x   137              2818638     100.0%      0.0%      0.0%
 flops     9 x     9 x    32              2923776     100.0%      0.0%      0.0%
 flops     9 x     9 x   132              2993760     100.0%      0.0%      0.0%
 flops     9 x     9 x   160             10212480     100.0%      0.0%      0.0%
 flops     9 x     9 x   128             16339968     100.0%      0.0%      0.0%
 flops     9 x    13 x     8             19708416     100.0%      0.0%      0.0%
 flops    13 x     9 x     8             19708416     100.0%      0.0%      0.0%
 flops     9 x    13 x     9             22171968     100.0%      0.0%      0.0%
 flops    13 x     9 x     9             22171968     100.0%      0.0%      0.0%
 flops     9 x    13 x   136            452664576     100.0%      0.0%      0.0%
 flops    13 x     9 x   136            452664576     100.0%      0.0%      0.0%
 flops     9 x    13 x   137            455992992     100.0%      0.0%      0.0%
 flops    13 x     9 x   137            455992992     100.0%      0.0%      0.0%
 flops     9 x    13 x    32            473001984     100.0%      0.0%      0.0%
 flops    13 x     9 x    32            473001984     100.0%      0.0%      0.0%
 flops     9 x    13 x   132            484323840     100.0%      0.0%      0.0%
 flops    13 x     9 x   132            484323840     100.0%      0.0%      0.0%
 flops     9 x    13 x   160           1652152320     100.0%      0.0%      0.0%
 flops    13 x     9 x   160           1652152320     100.0%      0.0%      0.0%
 flops     9 x    13 x   128           2643443712     100.0%      0.0%      0.0%
 flops    13 x     9 x   128           2643443712     100.0%      0.0%      0.0%
 flops    13 x    13 x     8           6405235200     100.0%      0.0%      0.0%
 flops    13 x    13 x     9           7205889600     100.0%      0.0%      0.0%
 flops    13 x    13 x   136         147115987200     100.0%      0.0%      0.0%
 flops    13 x    13 x   137         148197722400     100.0%      0.0%      0.0%
 flops    13 x    13 x    32         153725644800     100.0%      0.0%      0.0%
 flops    13 x    13 x   132         355286131200     100.0%      0.0%      0.0%
 flops    13 x    13 x   160         776805120000     100.0%      0.0%      0.0%
 flops    13 x    13 x   128        1242888192000     100.0%      0.0%      0.0%
 flops inhomo. stacks                           0       0.0%      0.0%      0.0%
 flops total                         2.850075E+12     100.0%      0.0%      0.0%
 flops max/rank                    182.856637E+09     100.0%      0.0%      0.0%
 matmuls inhomo. stacks                         0       0.0%      0.0%      0.0%
 matmuls total                           76930330     100.0%      0.0%      0.0%
 number of processed stacks                115778     100.0%      0.0%      0.0%
 average stack size                                   664.5       0.0       0.0
 marketing flops                     4.409707E+12
 -------------------------------------------------------------------------------
 # multiplications                            888
 max memory usage/rank               1.314370E+09
 # max total images/rank                        1
 # max 3D layers                                1
 # MPI messages exchanged                   85248
 MPI messages size (bytes):
  total size                        46.669111E+09
  min size                           0.000000E+00
  max size                         943.360000E+03
  average size                     547.451125E+03
 MPI breakdown and total messages size (bytes):
             size <=      128               11700                        0
       128 < size <=     8192                 780                   505440
      8192 < size <=    32768                   0                        0
     32768 < size <=   131072                4512                224052384
    131072 < size <=  4194304               68256              46444437072
   4194304 < size <= 16777216                   0                        0
  16777216 < size                               0                        0
 -------------------------------------------------------------------------------
 -                                                                             -
 -                      DBCSR MESSAGE PASSING PERFORMANCE                      -
 -                                                                             -
 -------------------------------------------------------------------------------
 ROUTINE             CALLS      AVE VOLUME [Bytes]
 MP_Bcast               33                     12.
 MP_Allreduce         6309                      8.
 MP_Alltoall         24924                 928197.
 MP_ISend            14208                 213230.
 MP_IRecv            14208                 194643.
 -------------------------------------------------------------------------------

 -------------------------------------------------------------------------------
 -                                                                             -
 -                                DBM STATISTICS                               -
 -                                                                             -
 -------------------------------------------------------------------------------
    M  x    N  x    K                                          COUNT     PERCENT
 -------------------------------------------------------------------------------

 -------------------------------------------------------------------------------
 -                                                                             -
 -                                GRID STATISTICS                              -
 -                                                                             -
 -------------------------------------------------------------------------------
 LP    KERNEL             BACKEND                              COUNT     PERCENT
 4     collocate general  REF                              166346858      49.72%
 4     integrate general  REF                              164609554      49.20%
 3     collocate general  REF                                1769880       0.53%
 3     integrate general  REF                                1751820       0.52%
 2     collocate general  REF                                  35280       0.01%
 2     integrate general  REF                                  34888       0.01%
 0     collocate general  REF                                  10800       0.00%
 -------------------------------------------------------------------------------

 MEMORY| Estimated peak process memory [MiB]                                1254

 -------------------------------------------------------------------------------
 -                                                                             -
 -                         MESSAGE PASSING PERFORMANCE                         -
 -                                                                             -
 -------------------------------------------------------------------------------

 ROUTINE             CALLS      AVE VOLUME [Bytes]
 MP_Group               24
 MP_Bcast             1453                 557154.
 MP_Allreduce         9378                    762.
 MP_Sync              1042
 MP_Alltoall         11215               22625745.
 MP_SendRecv         49086                 508395.
 MP_ISendRecv        38010                 513245.
 MP_Wait             61379
 MP_comm_split         130
 MP_ISend            16948                3137339.
 MP_IRecv            16948                3137566.
 MP_Recv               558                 718770.
 -------------------------------------------------------------------------------


 -------------------------------------------------------------------------------
 -                                                                             -
 -                           R E F E R E N C E S                               -
 -                                                                             -
 -------------------------------------------------------------------------------
 
 CP2K version 2023.1, the CP2K developers group (2023).
 CP2K is freely available from https://www.cp2k.org/ .

 Kuehne,Thomas D.; Iannuzzi,Marcella; Del Ben,Mauro;
 Rybkin,Vladimir V.; Seewald,Patrick; Stein,Frederick; Laino,Teodoro;
 Khaliullin,Rustam Z.; Schuett,Ole; Schiffmann,Florian; Golze,Dorothea;
 Wilhelm,Jan; Chulkov,Sergey; Bani-Hashemian,Mohammad Hossein;
 Weber,Valery; Borstnik,Urban; Taillefumier,Mathieu;
 Jakobovits,Alice Shoshana; Lazzaro,Alfio; Pabst,Hans; Mueller,Tiziano;
 Schade,Robert; Guidon,Manuel; Andermatt,Samuel; Holmberg,Nico;
 Schenter,Gregory K.; Hehn,Anna; Bussy,Augustin; Belleflamme,Fabian;
 Tabacchi,Gloria; Gloess,Andreas; Lass,Michael; Bethune,Iain;
 Mundy,Christopher J.; Plessl,Christian; Watkins,Matt;
 VandeVondele,Joost; Krack,Matthias; Hutter,Juerg. 
 The Journal of Chemical Physics, 152 (19), (2020). 
 CP2K: An electronic structure and molecular dynamics software package -
 Quickstep: Efficient and accurate electronic structure calculations.
 https://doi.org/10.1063/5.0007045

 Goerigk, Lars; Hansen, Andreas; Bauer, Christoph; Ehrlich, Stephan;
 Najibi, Asim; Grimme, Stefan. , 19 (48), (2017). 
 A look at the density functional theory zoo with the advanced GMTKN55 database
 for general main group thermochemistry, kinetics and noncovalent interactions.
 https://doi.org/10.1039/C7CP04913G

 Schuett, Ole; Messmer, Peter; Hutter, Juerg; VandeVondele, Joost. 
 Electronic Structure Calculations on Graphics Processing Units, John
 Wiley & Sons, Ltd, 173-190 (2016). 
 GPU-Accelerated Sparse Matrix-Matrix Multiplication for
 Linear Scaling Density Functional Theory.
 https://doi.org/10.1002/9781118670712.ch8

 Borstnik, U; VandeVondele, J; Weber, V; Hutter, J. 
 PARALLEL COMPUTING, 40 (5-6), 47-58 (2014). 
 Sparse matrix multiplication: The distributed block-compressed sparse
 row library.
 https://doi.org/10.1016/j.parco.2014.03.012

 Hutter, J; Iannuzzi, M; Schiffmann, F; VandeVondele, J. 
 WIREs Comput Mol Sci., 4 (1), 15-25 (2014). 
 CP2K: atomistic simulations of condensed matter systems.
 https://doi.org/10.1002/wcms.1159

 Marek, A; Blum, V; Johanni, R; Havu, V; Lang, B; Auckenthaler, T;
 Heinecke, A; Bungartz, H; Lederer, H. 
 Journal of Physics: Condensed Matter, 26 (21), (2014). 
 The ELPA library: scalable parallel eigenvalue solutions for
 electronic structure
 theory and computational science.
 https://doi.org/10.1088/0953-8984/26/21/213201

 Grimme, S; Ehrlich, S; Goerigk, L. 
 JOURNAL OF COMPUTATIONAL CHEMISTRY, 32, 1456 (2011). 
 Effect of the damping function in dispersion corrected density functional theory.
 https://doi.org/10.1002/jcc.21759

 Grimme, S; Antony, J; Ehrlich, S; Krieg, H. 
 JOURNAL OF CHEMICAL PHYSICS, 132 (15), 154104 (2010). 
 A consistent and accurate ab initio parametrization of density
 functional dispersion correction (DFT-D) for the 94 elements H-Pu.
 https://doi.org/10.1063/1.3382344

 VandeVondele, J; Hutter, J. 
 JOURNAL OF CHEMICAL PHYSICS, 127 (11), 114105 (2007). 
 Gaussian basis sets for accurate calculations on molecular systems in
 gas and condensed phases.
 https://doi.org/10.1063/1.2770708

 Krack, M. 
 THEORETICAL CHEMISTRY ACCOUNTS, 114 (1-3), 145-152 (2005). 
 Pseudopotentials for H to Kr optimized for gradient-corrected
 exchange-correlation functionals.
 https://doi.org/10.1007/s00214-005-0655-y

 VandeVondele, J; Krack, M; Mohamed, F; Parrinello, M; Chassaing, T;
 Hutter, J. COMPUTER PHYSICS COMMUNICATIONS, 167 (2), 103-128 (2005). 
 QUICKSTEP: Fast and accurate density functional calculations using a
 mixed Gaussian and plane waves approach.
 https://doi.org/10.1016/j.cpc.2004.12.014

 Frigo, M; Johnson, SG. 
 PROCEEDINGS OF THE IEEE, 93 (2), 216-231 (2005). 
 The design and implementation of FFTW3.
 https://doi.org/10.1109/JPROC.2004.840301

 Hartwigsen, C; Goedecker, S; Hutter, J. 
 PHYSICAL REVIEW B, 58 (7), 3641-3662 (1998). 
 Relativistic separable dual-space Gaussian pseudopotentials from H to Rn.
 https://doi.org/10.1103/PhysRevB.58.3641

 Lippert, G; Hutter, J; Parrinello, M. 
 MOLECULAR PHYSICS, 92 (3), 477-487 (1997). 
 A hybrid Gaussian and plane wave density functional scheme.
 https://doi.org/10.1080/002689797170220

 Goedecker, S; Teter, M; Hutter, J. 
 PHYSICAL REVIEW B, 54 (3), 1703-1710 (1996). 
 Separable dual-space Gaussian pseudopotentials.
 https://doi.org/10.1103/PhysRevB.54.1703

 BECKE, AD. PHYSICAL REVIEW A, 38 (6), 3098-3100 (1988). 
 DENSITY-FUNCTIONAL EXCHANGE-ENERGY APPROXIMATION WITH CORRECT
 ASYMPTOTIC-BEHAVIOR.
 https://doi.org/10.1103/PhysRevA.38.3098

 LEE, CT; YANG, WT; PARR, RG. 
 PHYSICAL REVIEW B, 37 (2), 785-789 (1988). 
 DEVELOPMENT OF THE COLLE-SALVETTI CORRELATION-ENERGY FORMULA INTO A
 FUNCTIONAL OF THE ELECTRON-DENSITY.
 https://doi.org/10.1103/PhysRevB.37.785


 -------------------------------------------------------------------------------
 -                                                                             -
 -                                T I M I N G                                  -
 -                                                                             -
 -------------------------------------------------------------------------------
 SUBROUTINE                       CALLS  ASD         SELF TIME        TOTAL TIME
                                MAXIMUM       AVERAGE  MAXIMUM  AVERAGE  MAXIMUM
 CP2K                                 1  1.0     0.61     0.64 17150.93 17150.94
 qs_energies                          5  2.0     0.00     0.00 17144.73 17144.75
 scf_env_do_scf                       5  3.0     0.00     0.00 17093.62 17094.34
 scf_env_do_scf_inner_loop          444  4.0     0.03     0.08 17093.62 17094.33
 qs_scf_new_mos                     444  5.0     0.02     0.03  9958.54  9963.91
 eigensolver                        888  6.0     0.09     0.12  9662.02  9664.44
 cp_fm_diag_elpa                    758  7.0     0.01     0.01  6056.38  6059.18
 cp_fm_diag_elpa_base               758  8.0  6037.27  6041.88  6049.80  6050.44
 cp_fm_triangular_multiply         2664  7.0  3595.40  3601.17  3595.40  3601.17
 qs_ks_update_qs_env                444  5.0     0.00     0.01  3392.02  3392.46
 rebuild_ks_matrix                  444  6.0     0.00     0.00  3375.25  3375.91
 qs_ks_build_kohn_sham_matrix       444  7.0     0.11     0.13  3375.24  3375.90
 qs_rho_update_rho_low              449  5.0     0.01     0.02  3092.96  3093.33
 calculate_rho_elec                 898  6.0     3.31     5.08  3092.95  3093.32
 sum_up_and_integrate               444  8.0     9.58    12.70  2901.19  2901.91
 integrate_v_rspace                 888  9.0     0.06     0.09  2891.60  2893.26
 grid_collocate_task_list           898  7.0  1746.90  2115.18  1746.90  2115.18
 grid_integrate_task_list           888 10.0  1727.33  2062.52  1727.33  2062.52
 density_rs2pw                      898  7.0     0.08     0.11  1301.10  1463.18
 rs_pw_transfer                    7149  9.5     0.16     0.19  1100.23  1263.86
 mp_alltoall_d11v                 12472  9.3   842.87   992.44   842.87   992.44
 mp_waitany                       16948 11.5   813.66   989.44   813.66   989.44
 rs_pw_transfer_RS2PW_150           903  9.0    20.68    23.20   806.81   975.67
 rs_gather_matrices                 888 10.0     2.47     3.94   795.19   944.69
 pw_transfer                      10255  9.0     1.34     1.71   799.37   819.23
 fft_wrap_pw1pw2                   9367  9.9     0.16     0.19   790.36   808.56
 fft_wrap_pw1pw2_150               4009 10.2    38.91    42.30   647.51   681.05
 gspace_mixing                      438  5.0     3.28     4.65   652.20   652.34
 fft3d_ps                          9367 11.9   260.27   304.05   615.46   639.27
 broyden_mixing                     438  6.0   346.94   374.66   437.20   439.75
 potential_pw2rs                    888 10.0     0.24     0.30   369.02   371.13
 qs_vxc_create                      444  8.0     0.01     0.03   354.45   358.30
 xc_vxc_pw_create                   444  9.0    13.65    15.61   354.43   358.27
 -------------------------------------------------------------------------------

 The number of warnings for this run is : 7
 
 -------------------------------------------------------------------------------
  **** **** ******  **  PROGRAM ENDED AT                 2025-05-15 19:40:03.370
 ***** ** ***  *** **   PROGRAM RAN ON                                sebnode130
 **    ****   ******    PROGRAM RAN BY                                    luehrs
 ***** **    ** ** **   PROGRAM PROCESS ID                               1479645
  **** **  *******  **  PROGRAM STOPPED IN /home/luehrs/PhD/Sodium_batteries/Sod
                                           ium-graphene-interlayer/AB_Interlayer
                                           /Zig-Zag1_3.76A
