 DBCSR| CPU Multiplication driver                                           BLAS (U)
 DBCSR| Multrec recursion limit                                              512 (U)
 DBCSR| Multiplication stack size                                           1000 (D)
 DBCSR| Maximum elements for images                                    UNLIMITED (U)
 DBCSR| Multiplicative factor virtual images                                   1 (U)
 DBCSR| Use multiplication densification                                       T (D)
 DBCSR| Multiplication size stacks                                             3 (U)
 DBCSR| Use memory pool for CPU allocation                                     F (U)
 DBCSR| Number of 3D layers                                               SINGLE (U)
 DBCSR| Use MPI memory allocation                                              F (U)
 DBCSR| Use RMA algorithm                                                      F (U)
 DBCSR| Use Communication thread                                               T (U)
 DBCSR| Communication thread load                                             87 (D)
 DBCSR| MPI: My process id                                                     0
 DBCSR| MPI: Number of processes                                              16
 DBCSR| OMP: Current number of threads                                         1
 DBCSR| OMP: Max number of threads                                             1
 DBCSR| Split modifier for TAS multiplication algorithm                  1.0E+00 (U)


  **** **** ******  **  PROGRAM STARTED AT               2025-05-16 14:25:48.273
 ***** ** ***  *** **   PROGRAM STARTED ON                            sebnode130
 **    ****   ******    PROGRAM STARTED BY                                luehrs
 ***** **    ** ** **   PROGRAM PROCESS ID                               1484447
  **** **  *******  **  PROGRAM STARTED IN /home/luehrs/PhD/Sodium_batteries/Sod
                                           ium-graphene-interlayer/AB_Interlayer
                                           /Zig-Zag1_3.76A

 CP2K| version string:                                       CP2K version 2023.1
 CP2K| source code revision number:                                  git:b888bd8
 CP2K| cp2kflags: omp libint fftw3 libxc elpa parallel scalapack spglib         
 CP2K| is freely available from                            https://www.cp2k.org/
 CP2K| Program compiled at                          Tue Jan 10 19:52:03 UTC 2023
 CP2K| Program compiled on                                            x86-ubc-01
 CP2K| Program compiled for                                Linux-x86_64-gfortran
 CP2K| Data directory path                                       /usr/share/cp2k
 CP2K| Input file name                                         input.zig-zag.inp

 GLOBAL| Force Environment number                                              1
 GLOBAL| Basis set file name                                      ./BASIS_MOLOPT
 GLOBAL| Potential file name                                    ./GTH_POTENTIALS
 GLOBAL| MM Potential file name                                     MM_POTENTIAL
 GLOBAL| Coordinate file name                          AB_3.76A_BLYP_relaxed.xyz
 GLOBAL| Method name                                                        CP2K
 GLOBAL| Project name                                       AB_3.76A_1_BLYP_BSSE
 GLOBAL| Run type                                                           BSSE
 GLOBAL| FFT library                                                       FFTW3
 GLOBAL| Diagonalization library                                            ELPA
 GLOBAL| DGEMM library                                                      BLAS
 GLOBAL| Minimum number of eigenvectors for ELPA usage                        16
 GLOBAL| Orthonormality check for eigenvectors                          DISABLED
 GLOBAL| Matrix multiplication library                                 ScaLAPACK
 GLOBAL| All-to-all communication in single precision                          F
 GLOBAL| FFTs using library dependent lengths                                  F
 GLOBAL| Grid backend                                                       AUTO
 GLOBAL| Global print level                                                  LOW
 GLOBAL| MPI I/O enabled                                                       T
 GLOBAL| Total number of message passing processes                            16
 GLOBAL| Number of threads for this process                                    1
 GLOBAL| This output is from process                                           0
 GLOBAL| Stack size for threads created by OpenMP (OMP_STACKSIZE)        default
 GLOBAL| CPU model name                          AMD EPYC 7513 32-Core Processor

 MEMORY| system memory details [Kb]
 MEMORY|                        rank 0           min           max       average
 MEMORY| MemTotal            131832644     131832644     131832644     131832644
 MEMORY| MemFree             127217136     127217136     127217136     127217136
 MEMORY| Buffers                471112        471112        471112        471112
 MEMORY| Cached                 353912        353912        353912        353912
 MEMORY| Slab                   789676        789676        789676        789676
 MEMORY| SReclaimable           150168        150168        150168        150168
 MEMORY| MemLikelyFree       128192328     128192328     128192328     128192328


 GENERATE|  Preliminary Number of Bonds generated:                             0
 GENERATE|  Achieved consistency in connectivity generation.

 *******************************************************************************
 *******************************************************************************
 **                                                                           **
 **     #####                         ##              ##                      **
 **    ##   ##            ##          ##              ##                      **
 **   ##     ##                       ##            ######                    **
 **   ##     ##  ##   ##  ##   #####  ##  ##   ####   ##    #####    #####    **
 **   ##     ##  ##   ##  ##  ##      ## ##   ##      ##   ##   ##  ##   ##   **
 **   ##  ## ##  ##   ##  ##  ##      ####     ###    ##   ######   ######    **
 **    ##  ###   ##   ##  ##  ##      ## ##      ##   ##   ##       ##        **
 **     #######   #####   ##   #####  ##  ##  ####    ##    #####   ##        **
 **           ##                                                    ##        **
 **                                                                           **
 **                                                ... make the atoms dance   **
 **                                                                           **
 **            Copyright (C) by CP2K developers group (2000-2022)             **
 **                      J. Chem. Phys. 152, 194103 (2020)                    **
 **                                                                           **
 *******************************************************************************


 TOTAL NUMBERS AND MAXIMUM NUMBERS

  Total number of            - Atomic kinds:                                   2
                             - Atoms:                                        225
                             - Shell sets:                                   225
                             - Shells:                                      1125
                             - Primitive Cartesian functions:               1127
                             - Cartesian basis functions:                   3145
                             - Spherical basis functions:                   2921

  Maximum angular momentum of- Orbital basis functions:                        2
                             - Local part of the GTH pseudopotential:          2
                             - Non-local part of the GTH pseudopotential:      1


 SCF PARAMETERS         Density guess:                                    ATOMIC
                        --------------------------------------------------------
                        max_scf:                                             100
                        max_scf_history:                                       0
                        max_diis:                                              4
                        --------------------------------------------------------
                        eps_scf:                                        3.00E-07
                        eps_scf_history:                                0.00E+00
                        eps_diis:                                       1.00E-01
                        eps_eigval:                                     1.00E-05
                        --------------------------------------------------------
                        level_shift [a.u.]:                             0.000000
                        added MOs                                       100  100
                        --------------------------------------------------------
                        Mixing method:                            BROYDEN_MIXING
                                                charge density mixing in g-space
                        --------------------------------------------------------
                        Smear method:                                FERMI_DIRAC
                        Electronic temperature [K]:                        300.0
                        Electronic temperature [a.u.]:                  9.50E-04
                        Accuracy threshold:                             1.00E-10
                        --------------------------------------------------------
                        Outer loop SCF in use 
                        No variables optimised in outer loop
                        eps_scf                                         1.00E-06
                        max_scf                                               30
                        DIIS optimization
                        DIIS buffer length                                     3
                        step_size                                       5.00E-01

 -------------------------------------------------------------------------------
 -                                                                             -
 -  BSSE CALCULATION         FRAGMENT CONF: 10        FRAGMENT SUBCONF: 10     -
 -                           CHARGE =     0           MULTIPLICITY =     0     -
 -                                                                             -
 -                 ATOM INDEX                              ATOM NAME           -
 -                 ----------                              ---------           -
 -                      1                                   C                  -
 -                      2                                   C                  -
 -                      3                                   C                  -
 -                      4                                   C                  -
 -                      5                                   C                  -
 -                      6                                   C                  -
 -                      7                                   C                  -
 -                      8                                   C                  -
 -                      9                                   C                  -
 -                     10                                   C                  -
 -                     11                                   C                  -
 -                     12                                   C                  -
 -                     13                                   C                  -
 -                     14                                   C                  -
 -                     15                                   C                  -
 -                     16                                   C                  -
 -                     17                                   C                  -
 -                     18                                   C                  -
 -                     19                                   C                  -
 -                     20                                   C                  -
 -                     21                                   C                  -
 -                     22                                   C                  -
 -                     23                                   C                  -
 -                     24                                   C                  -
 -                     25                                   C                  -
 -                     26                                   C                  -
 -                     27                                   C                  -
 -                     28                                   C                  -
 -                     29                                   C                  -
 -                     30                                   C                  -
 -                     31                                   C                  -
 -                     32                                   C                  -
 -                     33                                   C                  -
 -                     34                                   C                  -
 -                     35                                   C                  -
 -                     36                                   C                  -
 -                     37                                   C                  -
 -                     38                                   C                  -
 -                     39                                   C                  -
 -                     40                                   C                  -
 -                     41                                   C                  -
 -                     42                                   C                  -
 -                     43                                   C                  -
 -                     44                                   C                  -
 -                     45                                   C                  -
 -                     46                                   C                  -
 -                     47                                   C                  -
 -                     48                                   C                  -
 -                     49                                   C                  -
 -                     50                                   C                  -
 -                     51                                   C                  -
 -                     52                                   C                  -
 -                     53                                   C                  -
 -                     54                                   C                  -
 -                     55                                   C                  -
 -                     56                                   C                  -
 -                     57                                   C                  -
 -                     58                                   C                  -
 -                     59                                   C                  -
 -                     60                                   C                  -
 -                     61                                   C                  -
 -                     62                                   C                  -
 -                     63                                   C                  -
 -                     64                                   C                  -
 -                     65                                   C                  -
 -                     66                                   C                  -
 -                     67                                   C                  -
 -                     68                                   C                  -
 -                     69                                   C                  -
 -                     70                                   C                  -
 -                     71                                   C                  -
 -                     72                                   C                  -
 -                     73                                   C                  -
 -                     74                                   C                  -
 -                     75                                   C                  -
 -                     76                                   C                  -
 -                     77                                   C                  -
 -                     78                                   C                  -
 -                     79                                   C                  -
 -                     80                                   C                  -
 -                     81                                   C                  -
 -                     82                                   C                  -
 -                     83                                   C                  -
 -                     84                                   C                  -
 -                     85                                   C                  -
 -                     86                                   C                  -
 -                     87                                   C                  -
 -                     88                                   C                  -
 -                     89                                   C                  -
 -                     90                                   C                  -
 -                     91                                   C                  -
 -                     92                                   C                  -
 -                     93                                   C                  -
 -                     94                                   C                  -
 -                     95                                   C                  -
 -                     96                                   C                  -
 -                     97                                   C                  -
 -                     98                                   C                  -
 -                     99                                   C                  -
 -                    100                                   C                  -
 -                    101                                   C                  -
 -                    102                                   C                  -
 -                    103                                   C                  -
 -                    104                                   C                  -
 -                    105                                   C                  -
 -                    106                                   C                  -
 -                    107                                   C                  -
 -                    108                                   C                  -
 -                    109                                   C                  -
 -                    110                                   C                  -
 -                    111                                   C                  -
 -                    112                                   C                  -
 -                    113                                   C                  -
 -                    114                                   C                  -
 -                    115                                   C                  -
 -                    116                                   C                  -
 -                    117                                   C                  -
 -                    118                                   C                  -
 -                    119                                   C                  -
 -                    120                                   C                  -
 -                    121                                   C                  -
 -                    122                                   C                  -
 -                    123                                   C                  -
 -                    124                                   C                  -
 -                    125                                   C                  -
 -                    126                                   C                  -
 -                    127                                   C                  -
 -                    128                                   C                  -
 -                    129                                   C                  -
 -                    130                                   C                  -
 -                    131                                   C                  -
 -                    132                                   C                  -
 -                    133                                   C                  -
 -                    134                                   C                  -
 -                    135                                   C                  -
 -                    136                                   C                  -
 -                    137                                   C                  -
 -                    138                                   C                  -
 -                    139                                   C                  -
 -                    140                                   C                  -
 -                    141                                   C                  -
 -                    142                                   C                  -
 -                    143                                   C                  -
 -                    144                                   C                  -
 -                    145                                   C                  -
 -                    146                                   C                  -
 -                    147                                   C                  -
 -                    148                                   C                  -
 -                    149                                   C                  -
 -                    150                                   C                  -
 -                    151                                   C                  -
 -                    152                                   C                  -
 -                    153                                   C                  -
 -                    154                                   C                  -
 -                    155                                   C                  -
 -                    156                                   C                  -
 -                    157                                   C                  -
 -                    158                                   C                  -
 -                    159                                   C                  -
 -                    160                                   C                  -
 -                    161                                   C                  -
 -                    162                                   C                  -
 -                    163                                   C                  -
 -                    164                                   C                  -
 -                    165                                   C                  -
 -                    166                                   C                  -
 -                    167                                   C                  -
 -                    168                                   C                  -
 -                    169                                   C                  -
 -                    170                                   C                  -
 -                    171                                   C                  -
 -                    172                                   C                  -
 -                    173                                   C                  -
 -                    174                                   C                  -
 -                    175                                   C                  -
 -                    176                                   C                  -
 -                    177                                   C                  -
 -                    178                                   C                  -
 -                    179                                   C                  -
 -                    180                                   C                  -
 -                    181                                   C                  -
 -                    182                                   C                  -
 -                    183                                   C                  -
 -                    184                                   C                  -
 -                    185                                   C                  -
 -                    186                                   C                  -
 -                    187                                   C                  -
 -                    188                                   C                  -
 -                    189                                   C                  -
 -                    190                                   C                  -
 -                    191                                   C                  -
 -                    192                                   C                  -
 -                    193                                   C                  -
 -                    194                                   C                  -
 -                    195                                   C                  -
 -                    196                                   C                  -
 -                    197                                   C                  -
 -                    198                                   C                  -
 -                    199                                   C                  -
 -                    200                                   C                  -
 -                    201                                   C                  -
 -                    202                                   C                  -
 -                    203                                   C                  -
 -                    204                                   C                  -
 -                    205                                   C                  -
 -                    206                                   C                  -
 -                    207                                   C                  -
 -                    208                                   C                  -
 -                    209                                   C                  -
 -                    210                                   C                  -
 -                    211                                   C                  -
 -                    212                                   C                  -
 -                    213                                   C                  -
 -                    214                                   C                  -
 -                    215                                   C                  -
 -                    216                                   C                  -
 -                    217                                   C                  -
 -                    218                                   C                  -
 -                    219                                   C                  -
 -                    220                                   C                  -
 -                    221                                   C                  -
 -                    222                                   C                  -
 -                    223                                   C                  -
 -                    224                                   C                  -
 -------------------------------------------------------------------------------

 *******************************************************************************
 *******************************************************************************
 **                                                                           **
 **     #####                         ##              ##                      **
 **    ##   ##            ##          ##              ##                      **
 **   ##     ##                       ##            ######                    **
 **   ##     ##  ##   ##  ##   #####  ##  ##   ####   ##    #####    #####    **
 **   ##     ##  ##   ##  ##  ##      ## ##   ##      ##   ##   ##  ##   ##   **
 **   ##  ## ##  ##   ##  ##  ##      ####     ###    ##   ######   ######    **
 **    ##  ###   ##   ##  ##  ##      ## ##      ##   ##   ##       ##        **
 **     #######   #####   ##   #####  ##  ##  ####    ##    #####   ##        **
 **           ##                                                    ##        **
 **                                                                           **
 **                                                ... make the atoms dance   **
 **                                                                           **
 **            Copyright (C) by CP2K developers group (2000-2022)             **
 **                      J. Chem. Phys. 152, 194103 (2020)                    **
 **                                                                           **
 *******************************************************************************


 TOTAL NUMBERS AND MAXIMUM NUMBERS

  Total number of            - Atomic kinds:                                   1
                             - Atoms:                                        224
                             - Shell sets:                                   224
                             - Shells:                                      1120
                             - Primitive Cartesian functions:               1120
                             - Cartesian basis functions:                   3136
                             - Spherical basis functions:                   2912

  Maximum angular momentum of- Orbital basis functions:                        2
                             - Local part of the GTH pseudopotential:          2
                             - Non-local part of the GTH pseudopotential:      0


 SCF PARAMETERS         Density guess:                                    ATOMIC
                        --------------------------------------------------------
                        max_scf:                                             100
                        max_scf_history:                                       0
                        max_diis:                                              4
                        --------------------------------------------------------
                        eps_scf:                                        3.00E-07
                        eps_scf_history:                                0.00E+00
                        eps_diis:                                       1.00E-01
                        eps_eigval:                                     1.00E-05
                        --------------------------------------------------------
                        level_shift [a.u.]:                             0.000000
                        added MOs                                       100  100
                        --------------------------------------------------------
                        Mixing method:                            BROYDEN_MIXING
                                                charge density mixing in g-space
                        --------------------------------------------------------
                        Smear method:                                FERMI_DIRAC
                        Electronic temperature [K]:                        300.0
                        Electronic temperature [a.u.]:                  9.50E-04
                        Accuracy threshold:                             1.00E-10
                        --------------------------------------------------------
                        Outer loop SCF in use 
                        No variables optimised in outer loop
                        eps_scf                                         1.00E-06
                        max_scf                                               30
                        DIIS optimization
                        DIIS buffer length                                     3
                        step_size                                       5.00E-01

 Spin 1

 Number of electrons:                                                        448
 Number of occupied orbitals:                                                448
 Number of molecular orbitals:                                               548

 Spin 2

 Number of electrons:                                                        448
 Number of occupied orbitals:                                                448
 Number of molecular orbitals:                                               548

 Number of orbital functions:                                               2912
 Number of independent orbital functions:                                   2912

 Extrapolation method: initial_guess


 SCF WAVEFUNCTION OPTIMIZATION

  Step     Update method      Time    Convergence         Total energy    Change
  ------------------------------------------------------------------------------
     1 NoMix/Diag. 0.10E+00    9.4     0.45064890     -1259.9593779366 -1.26E+03
     2 Broy./Diag. 0.10E+00   12.7     0.00311180     -1203.1842337458  5.68E+01
     3 Broy./Diag. 0.10E+00   12.8     7.52031178     -1248.3435718589 -4.52E+01
     4 Broy./Diag. 0.10E+00   12.8     7.52026657     -1199.4890191335  4.89E+01
     5 Broy./Diag. 0.10E+00   12.9     7.59178350     -1265.8105774812 -6.63E+01
     6 Broy./Diag. 0.10E+00   13.0     7.59178183     -1169.1645685664  9.66E+01
     7 Broy./Diag. 0.10E+00   13.0     7.60638029     -1266.4918538792 -9.73E+01
     8 Broy./Diag. 0.10E+00   13.1     7.60637878     -1108.5749984247  1.58E+02
     9 Broy./Diag. 0.10E+00   13.2     7.60420686     -1266.7036340444 -1.58E+02
    10 Broy./Diag. 0.10E+00   13.4     7.60420477     -1159.1549706976  1.08E+02
    11 Broy./Diag. 0.10E+00   13.4     7.63277523     -1267.0241250564 -1.08E+02
    12 Broy./Diag. 0.10E+00   13.4     7.63277373     -1174.4307546863  9.26E+01
    13 Broy./Diag. 0.10E+00   13.3     6.50715325     -1247.8866770704 -7.35E+01
    14 Broy./Diag. 0.10E+00   20.8     7.63730470     -1267.3444730317 -1.95E+01
    15 Broy./Diag. 0.10E+00   22.5     7.63730437     -1168.8189251000  9.85E+01
    16 Broy./Diag. 0.10E+00   22.6     7.65496797     -1267.4067747783 -9.86E+01
    17 Broy./Diag. 0.10E+00   22.6     7.65481695     -1173.5408960850  9.39E+01
    18 Broy./Diag. 0.10E+00   22.7     7.65793638     -1244.3231864853 -7.08E+01
    19 Broy./Diag. 0.10E+00   22.8     7.63934267     -1267.6268573144 -2.33E+01
    20 Broy./Diag. 0.10E+00   22.8     7.64476488     -1201.4248358667  6.62E+01
    21 Broy./Diag. 0.10E+00   22.9     7.67186841     -1267.6318824740 -6.62E+01
    22 Broy./Diag. 0.10E+00   23.0     7.67184540     -1106.4105133196  1.61E+02
    23 Broy./Diag. 0.10E+00   23.1     7.68366482     -1244.8496423329 -1.38E+02
    24 Broy./Diag. 0.10E+00   23.1     7.67774640     -1267.9988673352 -2.31E+01
    25 Broy./Diag. 0.10E+00   23.1     7.67774377     -1176.2925058155  9.17E+01
    26 Broy./Diag. 0.10E+00   23.1     0.24418338     -1268.0365787753 -9.17E+01
    27 Broy./Diag. 0.10E+00   23.1     0.24413785     -1266.7544395199  1.28E+00
    28 Broy./Diag. 0.10E+00   23.2     7.69061235     -1268.1123660687 -1.36E+00
    29 Broy./Diag. 0.10E+00   23.1     7.69060961     -1241.6911550205  2.64E+01
    30 Broy./Diag. 0.10E+00   23.2     0.64267682     -1268.0280947380 -2.63E+01
    31 Broy./Diag. 0.10E+00   23.1     0.64367042     -1265.1279413022  2.90E+00
    32 Broy./Diag. 0.10E+00   23.2     1.36279896     -1268.2691721472 -3.14E+00
    33 Broy./Diag. 0.10E+00   23.1     1.36279377     -1263.8551123948  4.41E+00
    34 Broy./Diag. 0.10E+00   23.1     0.08595311     -1268.1759125242 -4.32E+00
    35 Broy./Diag. 0.10E+00   23.2     0.08540742     -1268.2006384084 -2.47E-02
    36 Broy./Diag. 0.10E+00   23.1     0.03879706     -1268.4057224913 -2.05E-01
    37 Broy./Diag. 0.10E+00   23.1     0.01865842     -1268.4471830929 -4.15E-02
    38 Broy./Diag. 0.10E+00   23.1     0.00355720     -1268.4615645942 -1.44E-02
    39 Broy./Diag. 0.10E+00   23.1     7.52440002     -1268.9218454900 -4.60E-01
    40 Broy./Diag. 0.10E+00   23.1     7.52439964     -1246.5148130467  2.24E+01
    41 Broy./Diag. 0.10E+00   23.1     6.75736979     -1249.0172482185 -2.50E+00
    42 Broy./Diag. 0.10E+00   23.1     0.00187369     -1268.8727542546 -1.99E+01
    43 Broy./Diag. 0.10E+00   23.1     0.00069749     -1269.2182338220 -3.45E-01
    44 Broy./Diag. 0.10E+00   23.1     7.70920052     -1269.4630368394 -2.45E-01
    45 Broy./Diag. 0.10E+00   23.1     7.70919911     -1246.5982081913  2.29E+01
    46 Broy./Diag. 0.10E+00   23.1     0.00284790     -1269.6096103054 -2.30E+01
    47 Broy./Diag. 0.10E+00   23.1     0.00362405     -1269.7159188020 -1.06E-01
    48 Broy./Diag. 0.10E+00   23.1     0.01991109     -1269.7542520211 -3.83E-02
    49 Broy./Diag. 0.10E+00   23.1     0.01708253     -1269.8368102319 -8.26E-02
    50 Broy./Diag. 0.10E+00   23.1     0.00258000     -1269.9377005299 -1.01E-01
    51 Broy./Diag. 0.10E+00   23.1     0.00027707     -1269.9664126798 -2.87E-02
    52 Broy./Diag. 0.10E+00   23.2     0.00271228     -1269.9695537017 -3.14E-03
    53 Broy./Diag. 0.10E+00   23.1     0.00358879     -1269.9722251775 -2.67E-03
    54 Broy./Diag. 0.10E+00   23.1     0.00251180     -1269.9734760898 -1.25E-03
    55 Broy./Diag. 0.10E+00   23.2     0.00051707     -1269.9782595629 -4.78E-03
    56 Broy./Diag. 0.10E+00   23.2     0.00018407     -1269.9849170134 -6.66E-03
    57 Broy./Diag. 0.10E+00   23.1     0.00023539     -1269.9926696975 -7.75E-03
    58 Broy./Diag. 0.10E+00   23.1     0.00002368     -1269.9933993278 -7.30E-04
    59 Broy./Diag. 0.10E+00   23.1     0.00007251     -1269.9844481761  8.95E-03
    60 Broy./Diag. 0.10E+00   23.1     0.00014830     -1269.9821844645  2.26E-03
    61 Broy./Diag. 0.10E+00   23.1     0.00005897     -1269.9906237892 -8.44E-03
    62 Broy./Diag. 0.10E+00   23.1     0.00021907     -1270.0045906806 -1.40E-02
    63 Broy./Diag. 0.10E+00   23.2     0.00003095     -1270.0187864999 -1.42E-02
    64 Broy./Diag. 0.10E+00   23.1     0.00004533     -1270.0215544859 -2.77E-03
    65 Broy./Diag. 0.10E+00   23.2     0.00003533     -1270.0253554876 -3.80E-03
    66 Broy./Diag. 0.10E+00   26.3     0.00003715     -1270.0263997183 -1.04E-03
    67 Broy./Diag. 0.10E+00   39.9     0.00002360     -1270.0262713715  1.28E-04
    68 Broy./Diag. 0.10E+00   40.9     0.00002675     -1270.0266972214 -4.26E-04
    69 Broy./Diag. 0.10E+00   40.2     0.00001306     -1270.0274154827 -7.18E-04
    70 Broy./Diag. 0.10E+00   41.0     0.00001360     -1270.0265412951  8.74E-04
    71 Broy./Diag. 0.10E+00   40.4     0.00000753     -1270.0252131421  1.33E-03
    72 Broy./Diag. 0.10E+00   41.1     0.00001473     -1270.0247579029  4.55E-04
    73 Broy./Diag. 0.10E+00   41.2     0.00000373     -1270.0252205562 -4.63E-04
    74 Broy./Diag. 0.10E+00   40.7     0.00000634     -1270.0256346431 -4.14E-04
    75 Broy./Diag. 0.10E+00   41.1     0.00000695     -1270.0259054244 -2.71E-04
    76 Broy./Diag. 0.10E+00   40.9     0.00000329     -1270.0258640689  4.14E-05
    77 Broy./Diag. 0.10E+00   41.0     0.00000137     -1270.0259172624 -5.32E-05
    78 Broy./Diag. 0.10E+00   41.3     0.00000525     -1270.0258048505  1.12E-04
    79 Broy./Diag. 0.10E+00   40.6     0.00000315     -1270.0256815353  1.23E-04
    80 Broy./Diag. 0.10E+00   39.4     0.00000205     -1270.0256738551  7.68E-06
    81 Broy./Diag. 0.10E+00   23.6     0.00000075     -1270.0256755049 -1.65E-06
    82 Broy./Diag. 0.10E+00   23.8     0.00000101     -1270.0256226532  5.29E-05
    83 Broy./Diag. 0.10E+00   23.9     0.00000130     -1270.0256102500  1.24E-05
    84 Broy./Diag. 0.10E+00   24.0     0.00000052     -1270.0256790785 -6.88E-05
    85 Broy./Diag. 0.10E+00   24.1     0.00000128     -1270.0257694922 -9.04E-05
    86 Broy./Diag. 0.10E+00   24.2     0.00000042     -1270.0258463253 -7.68E-05
    87 Broy./Diag. 0.10E+00   24.2     0.00000072     -1270.0258904298 -4.41E-05
    88 Broy./Diag. 0.10E+00   24.2     0.00000021     -1270.0259187183 -2.83E-05

  *** SCF run converged in    88 steps ***


  Electronic density on regular grids:       -895.9999999996        0.0000000004
  Core density on regular grids:              895.9999999992       -0.0000000008
  Total charge density on r-space grids:       -0.0000000004
  Total charge density g-space grids:          -0.0000000004

  Overlap energy of the core charge distribution:               0.00003981593630
  Self energy of the core charge distribution:              -2990.62154893316665
  Core Hamiltonian energy:                                    943.84903702727479
  Hartree energy:                                            1163.11221973323609
  Exchange-correlation energy:                               -385.58332990239421
  Dispersion energy:                                           -0.78233645894050
  Electronic entropic energy:                                  -0.00000000023972
  Fermi energy:                                                -0.06419617756106

  Total energy:                                             -1270.02591871829395

  outer SCF iter =    1 RMS gradient =   0.21E-06 energy =      -1270.0259187183
  outer SCF loop converged in   1 iterations or   88 steps


  Integrated absolute spin density  :                               0.0000000000
  WARNING: S**2 computation does not yet treat fractional occupied orbitals

 *** WARNING in qs_loc_utils.F:1500 :: User requested the calculation of ***
 *** the localized wavefunction but the section LOCALIZE was not         ***
 *** specified. Localization will not be performed!                      ***


 -------------------------------------------------------------------------------
 -                                                                             -
 -  BSSE CALCULATION         FRAGMENT CONF: 01        FRAGMENT SUBCONF: 01     -
 -                           CHARGE =     0           MULTIPLICITY =     0     -
 -                                                                             -
 -                 ATOM INDEX                              ATOM NAME           -
 -                 ----------                              ---------           -
 -                    225                                   Na                 -
 -------------------------------------------------------------------------------

 *******************************************************************************
 *******************************************************************************
 **                                                                           **
 **     #####                         ##              ##                      **
 **    ##   ##            ##          ##              ##                      **
 **   ##     ##                       ##            ######                    **
 **   ##     ##  ##   ##  ##   #####  ##  ##   ####   ##    #####    #####    **
 **   ##     ##  ##   ##  ##  ##      ## ##   ##      ##   ##   ##  ##   ##   **
 **   ##  ## ##  ##   ##  ##  ##      ####     ###    ##   ######   ######    **
 **    ##  ###   ##   ##  ##  ##      ## ##      ##   ##   ##       ##        **
 **     #######   #####   ##   #####  ##  ##  ####    ##    #####   ##        **
 **           ##                                                    ##        **
 **                                                                           **
 **                                                ... make the atoms dance   **
 **                                                                           **
 **            Copyright (C) by CP2K developers group (2000-2022)             **
 **                      J. Chem. Phys. 152, 194103 (2020)                    **
 **                                                                           **
 *******************************************************************************

 *** WARNING in qs_environment.F:1470 :: More ADDED_MOs requested for beta ***
 *** spin than available.                                                  ***


 *** WARNING in qs_environment.F:1486 :: More added MOs requested than     ***
 *** available. The full set of unoccupied MOs will be used. Use           ***
 *** 'ADDED_MOS -1' to always use all available MOs and to get rid of this ***
 *** warning.                                                              ***



 TOTAL NUMBERS AND MAXIMUM NUMBERS

  Total number of            - Atomic kinds:                                   1
                             - Atoms:                                          1
                             - Shell sets:                                     1
                             - Shells:                                         5
                             - Primitive Cartesian functions:                  7
                             - Cartesian basis functions:                      9
                             - Spherical basis functions:                      9

  Maximum angular momentum of- Orbital basis functions:                        1
                             - Local part of the GTH pseudopotential:          2
                             - Non-local part of the GTH pseudopotential:      1


 SCF PARAMETERS         Density guess:                                    ATOMIC
                        --------------------------------------------------------
                        max_scf:                                             100
                        max_scf_history:                                       0
                        max_diis:                                              4
                        --------------------------------------------------------
                        eps_scf:                                        3.00E-07
                        eps_scf_history:                                0.00E+00
                        eps_diis:                                       1.00E-01
                        eps_eigval:                                     1.00E-05
                        --------------------------------------------------------
                        level_shift [a.u.]:                             0.000000
                        added MOs                                         4    5
                        --------------------------------------------------------
                        Mixing method:                            BROYDEN_MIXING
                                                charge density mixing in g-space
                        --------------------------------------------------------
                        Smear method:                                FERMI_DIRAC
                        Electronic temperature [K]:                        300.0
                        Electronic temperature [a.u.]:                  9.50E-04
                        Accuracy threshold:                             1.00E-10
                        --------------------------------------------------------
                        Outer loop SCF in use 
                        No variables optimised in outer loop
                        eps_scf                                         1.00E-06
                        max_scf                                               30
                        DIIS optimization
                        DIIS buffer length                                     3
                        step_size                                       5.00E-01

 Spin 1

 Number of electrons:                                                          5
 Number of occupied orbitals:                                                  5
 Number of molecular orbitals:                                                 9

 Spin 2

 Number of electrons:                                                          4
 Number of occupied orbitals:                                                  4
 Number of molecular orbitals:                                                 9

 Number of orbital functions:                                                  9
 Number of independent orbital functions:                                      9

 Extrapolation method: initial_guess


 SCF WAVEFUNCTION OPTIMIZATION

  Step     Update method      Time    Convergence         Total energy    Change
  ------------------------------------------------------------------------------
     1 NoMix/Diag. 0.10E+00    1.2     0.36461924       -47.1584278478 -4.72E+01
     2 Broy./Diag. 0.10E+00    2.9     0.01251875       -47.1305455913  2.79E-02
     3 Broy./Diag. 0.10E+00    2.8     0.06959356       -47.1547194418 -2.42E-02
     4 Broy./Diag. 0.10E+00    2.9     0.00111978       -47.1381954111  1.65E-02
     5 Broy./Diag. 0.10E+00    2.9     0.00340622       -47.1490929965 -1.09E-02
     6 Broy./Diag. 0.10E+00    3.0     0.00225794       -47.1448658391  4.23E-03
     7 Broy./Diag. 0.10E+00    3.1     0.01193442       -47.1495687054 -4.70E-03
     8 Broy./Diag. 0.10E+00    3.2     0.00173122       -47.1588076234 -9.24E-03
     9 Broy./Diag. 0.10E+00    3.3     0.00469442       -47.1568822139  1.93E-03
    10 Broy./Diag. 0.10E+00    3.6     0.00225506       -47.1562504937  6.32E-04
    11 Broy./Diag. 0.10E+00    3.6     0.00165522       -47.1576575808 -1.41E-03
    12 Broy./Diag. 0.10E+00    3.5     0.00173126       -47.1533497982  4.31E-03
    13 Broy./Diag. 0.10E+00    5.5     0.00080286       -47.1466655814  6.68E-03
    14 Broy./Diag. 0.10E+00    3.4     0.00086397       -47.1455071590  1.16E-03
    15 Broy./Diag. 0.10E+00    3.6     0.00037099       -47.1489746646 -3.47E-03
    16 Broy./Diag. 0.10E+00    3.4     0.00024628       -47.1592426035 -1.03E-02
    17 Broy./Diag. 0.10E+00    3.5     0.00022836       -47.1556748991  3.57E-03
    18 Broy./Diag. 0.10E+00    3.4     0.00034896       -47.1516103659  4.06E-03
    19 Broy./Diag. 0.10E+00    3.5     0.00011211       -47.1464090063  5.20E-03
    20 Broy./Diag. 0.10E+00    3.5     0.00017133       -47.1489019015 -2.49E-03
    21 Broy./Diag. 0.10E+00    3.4     0.00017808       -47.1510936691 -2.19E-03
    22 Broy./Diag. 0.10E+00    3.6     0.00013147       -47.1522420252 -1.15E-03
    23 Broy./Diag. 0.10E+00    3.6     0.00006780       -47.1534022896 -1.16E-03
    24 Broy./Diag. 0.10E+00    3.5     0.00010034       -47.1538148948 -4.13E-04
    25 Broy./Diag. 0.10E+00    5.4     0.00012934       -47.1522921315  1.52E-03
    26 Broy./Diag. 0.10E+00    3.4     0.00004467       -47.1513136894  9.78E-04
    27 Broy./Diag. 0.10E+00    3.6     0.00010066       -47.1497711388  1.54E-03
    28 Broy./Diag. 0.10E+00    3.5     0.00008620       -47.1495377742  2.33E-04
    29 Broy./Diag. 0.10E+00    3.5     0.00007220       -47.1497350584 -1.97E-04
    30 Broy./Diag. 0.10E+00    3.4     0.00008175       -47.1492902689  4.45E-04
    31 Broy./Diag. 0.10E+00    3.5     0.00008847       -47.1491121757  1.78E-04
    32 Broy./Diag. 0.10E+00    3.5     0.00001739       -47.1494514015 -3.39E-04
    33 Broy./Diag. 0.10E+00    3.4     0.00009647       -47.1492353928  2.16E-04
    34 Broy./Diag. 0.10E+00    3.6     0.00003379       -47.1487336253  5.02E-04
    35 Broy./Diag. 0.10E+00    3.7     0.00000633       -47.1486366455  9.70E-05
    36 Broy./Diag. 0.10E+00    3.8     0.00001638       -47.1491969741 -5.60E-04
    37 Broy./Diag. 0.10E+00    5.2     0.00000717       -47.1493527611 -1.56E-04
    38 Broy./Diag. 0.10E+00    3.6     0.00000826       -47.1492592850  9.35E-05
    39 Broy./Diag. 0.10E+00    3.4     0.00002326       -47.1491406586  1.19E-04
    40 Broy./Diag. 0.10E+00    3.5     0.00001380       -47.1490183685  1.22E-04
    41 Broy./Diag. 0.10E+00    3.4     0.00000358       -47.1490342134 -1.58E-05
    42 Broy./Diag. 0.10E+00    3.5     0.00002236       -47.1490455907 -1.14E-05
    43 Broy./Diag. 0.10E+00    3.5     0.00000510       -47.1489913804  5.42E-05
    44 Broy./Diag. 0.10E+00    3.4     0.00000214       -47.1490373725 -4.60E-05
    45 Broy./Diag. 0.10E+00    3.5     0.00000972       -47.1491140240 -7.67E-05
    46 Broy./Diag. 0.10E+00    3.5     0.00000076       -47.1490943720  1.97E-05
    47 Broy./Diag. 0.10E+00    3.8     0.00000810       -47.1490334457  6.09E-05
    48 Broy./Diag. 0.10E+00    4.5     0.00001426       -47.1490421475 -8.70E-06
    49 Broy./Diag. 0.10E+00    4.6     0.00000037       -47.1490852496 -4.31E-05
    50 Broy./Diag. 0.10E+00    3.6     0.00000144       -47.1490587298  2.65E-05
    51 Broy./Diag. 0.10E+00    3.4     0.00000820       -47.1490294494  2.93E-05
    52 Broy./Diag. 0.10E+00    3.5     0.00000129       -47.1490116669  1.78E-05
    53 Broy./Diag. 0.10E+00    3.4     0.00000148       -47.1490348660 -2.32E-05
    54 Broy./Diag. 0.10E+00    3.4     0.00000189       -47.1490402795 -5.41E-06
    55 Broy./Diag. 0.10E+00    3.5     0.00000450       -47.1490333051  6.97E-06
    56 Broy./Diag. 0.10E+00    3.4     0.00000051       -47.1490240910  9.21E-06
    57 Broy./Diag. 0.10E+00    3.5     0.00000067       -47.1490353852 -1.13E-05
    58 Broy./Diag. 0.10E+00    3.5     0.00000296       -47.1490414651 -6.08E-06
    59 Broy./Diag. 0.10E+00    3.8     0.00000031       -47.1490423872 -9.22E-07
    60 Broy./Diag. 0.10E+00    4.6     0.00000150       -47.1490321819  1.02E-05
    61 Broy./Diag. 0.10E+00    4.3     0.00000023       -47.1490332840 -1.10E-06

  *** SCF run converged in    61 steps ***


  Electronic density on regular grids:         -9.0001379655       -0.0001379655
  Core density on regular grids:                9.0000000000       -0.0000000000
  Total charge density on r-space grids:       -0.0001379655
  Total charge density g-space grids:          -0.0001379655

  Overlap energy of the core charge distribution:               0.00000000000000
  Self energy of the core charge distribution:                -97.66279648848419
  Core Hamiltonian energy:                                     29.97632202488023
  Hartree energy:                                              27.57994181157194
  Exchange-correlation energy:                                 -7.04249745341745
  Dispersion energy:                                           -0.00000317792349
  Electronic entropic energy:                                  -0.00000000058851
  Fermi energy:                                                -0.08336467198605

  Total energy:                                               -47.14903328396107

  outer SCF iter =    1 RMS gradient =   0.23E-06 energy =        -47.1490332840
  outer SCF loop converged in   1 iterations or   61 steps


  Integrated absolute spin density  :                               1.0000151184
  WARNING: S**2 computation does not yet treat fractional occupied orbitals

 *** WARNING in qs_loc_utils.F:1500 :: User requested the calculation of ***
 *** the localized wavefunction but the section LOCALIZE was not         ***
 *** specified. Localization will not be performed!                      ***


 -------------------------------------------------------------------------------
 -                                                                             -
 -  BSSE CALCULATION         FRAGMENT CONF: 11        FRAGMENT SUBCONF: 10     -
 -                           CHARGE =     0           MULTIPLICITY =     0     -
 -                                                                             -
 -                 ATOM INDEX                              ATOM NAME           -
 -                 ----------                              ---------           -
 -                      1                                   C                  -
 -                      2                                   C                  -
 -                      3                                   C                  -
 -                      4                                   C                  -
 -                      5                                   C                  -
 -                      6                                   C                  -
 -                      7                                   C                  -
 -                      8                                   C                  -
 -                      9                                   C                  -
 -                     10                                   C                  -
 -                     11                                   C                  -
 -                     12                                   C                  -
 -                     13                                   C                  -
 -                     14                                   C                  -
 -                     15                                   C                  -
 -                     16                                   C                  -
 -                     17                                   C                  -
 -                     18                                   C                  -
 -                     19                                   C                  -
 -                     20                                   C                  -
 -                     21                                   C                  -
 -                     22                                   C                  -
 -                     23                                   C                  -
 -                     24                                   C                  -
 -                     25                                   C                  -
 -                     26                                   C                  -
 -                     27                                   C                  -
 -                     28                                   C                  -
 -                     29                                   C                  -
 -                     30                                   C                  -
 -                     31                                   C                  -
 -                     32                                   C                  -
 -                     33                                   C                  -
 -                     34                                   C                  -
 -                     35                                   C                  -
 -                     36                                   C                  -
 -                     37                                   C                  -
 -                     38                                   C                  -
 -                     39                                   C                  -
 -                     40                                   C                  -
 -                     41                                   C                  -
 -                     42                                   C                  -
 -                     43                                   C                  -
 -                     44                                   C                  -
 -                     45                                   C                  -
 -                     46                                   C                  -
 -                     47                                   C                  -
 -                     48                                   C                  -
 -                     49                                   C                  -
 -                     50                                   C                  -
 -                     51                                   C                  -
 -                     52                                   C                  -
 -                     53                                   C                  -
 -                     54                                   C                  -
 -                     55                                   C                  -
 -                     56                                   C                  -
 -                     57                                   C                  -
 -                     58                                   C                  -
 -                     59                                   C                  -
 -                     60                                   C                  -
 -                     61                                   C                  -
 -                     62                                   C                  -
 -                     63                                   C                  -
 -                     64                                   C                  -
 -                     65                                   C                  -
 -                     66                                   C                  -
 -                     67                                   C                  -
 -                     68                                   C                  -
 -                     69                                   C                  -
 -                     70                                   C                  -
 -                     71                                   C                  -
 -                     72                                   C                  -
 -                     73                                   C                  -
 -                     74                                   C                  -
 -                     75                                   C                  -
 -                     76                                   C                  -
 -                     77                                   C                  -
 -                     78                                   C                  -
 -                     79                                   C                  -
 -                     80                                   C                  -
 -                     81                                   C                  -
 -                     82                                   C                  -
 -                     83                                   C                  -
 -                     84                                   C                  -
 -                     85                                   C                  -
 -                     86                                   C                  -
 -                     87                                   C                  -
 -                     88                                   C                  -
 -                     89                                   C                  -
 -                     90                                   C                  -
 -                     91                                   C                  -
 -                     92                                   C                  -
 -                     93                                   C                  -
 -                     94                                   C                  -
 -                     95                                   C                  -
 -                     96                                   C                  -
 -                     97                                   C                  -
 -                     98                                   C                  -
 -                     99                                   C                  -
 -                    100                                   C                  -
 -                    101                                   C                  -
 -                    102                                   C                  -
 -                    103                                   C                  -
 -                    104                                   C                  -
 -                    105                                   C                  -
 -                    106                                   C                  -
 -                    107                                   C                  -
 -                    108                                   C                  -
 -                    109                                   C                  -
 -                    110                                   C                  -
 -                    111                                   C                  -
 -                    112                                   C                  -
 -                    113                                   C                  -
 -                    114                                   C                  -
 -                    115                                   C                  -
 -                    116                                   C                  -
 -                    117                                   C                  -
 -                    118                                   C                  -
 -                    119                                   C                  -
 -                    120                                   C                  -
 -                    121                                   C                  -
 -                    122                                   C                  -
 -                    123                                   C                  -
 -                    124                                   C                  -
 -                    125                                   C                  -
 -                    126                                   C                  -
 -                    127                                   C                  -
 -                    128                                   C                  -
 -                    129                                   C                  -
 -                    130                                   C                  -
 -                    131                                   C                  -
 -                    132                                   C                  -
 -                    133                                   C                  -
 -                    134                                   C                  -
 -                    135                                   C                  -
 -                    136                                   C                  -
 -                    137                                   C                  -
 -                    138                                   C                  -
 -                    139                                   C                  -
 -                    140                                   C                  -
 -                    141                                   C                  -
 -                    142                                   C                  -
 -                    143                                   C                  -
 -                    144                                   C                  -
 -                    145                                   C                  -
 -                    146                                   C                  -
 -                    147                                   C                  -
 -                    148                                   C                  -
 -                    149                                   C                  -
 -                    150                                   C                  -
 -                    151                                   C                  -
 -                    152                                   C                  -
 -                    153                                   C                  -
 -                    154                                   C                  -
 -                    155                                   C                  -
 -                    156                                   C                  -
 -                    157                                   C                  -
 -                    158                                   C                  -
 -                    159                                   C                  -
 -                    160                                   C                  -
 -                    161                                   C                  -
 -                    162                                   C                  -
 -                    163                                   C                  -
 -                    164                                   C                  -
 -                    165                                   C                  -
 -                    166                                   C                  -
 -                    167                                   C                  -
 -                    168                                   C                  -
 -                    169                                   C                  -
 -                    170                                   C                  -
 -                    171                                   C                  -
 -                    172                                   C                  -
 -                    173                                   C                  -
 -                    174                                   C                  -
 -                    175                                   C                  -
 -                    176                                   C                  -
 -                    177                                   C                  -
 -                    178                                   C                  -
 -                    179                                   C                  -
 -                    180                                   C                  -
 -                    181                                   C                  -
 -                    182                                   C                  -
 -                    183                                   C                  -
 -                    184                                   C                  -
 -                    185                                   C                  -
 -                    186                                   C                  -
 -                    187                                   C                  -
 -                    188                                   C                  -
 -                    189                                   C                  -
 -                    190                                   C                  -
 -                    191                                   C                  -
 -                    192                                   C                  -
 -                    193                                   C                  -
 -                    194                                   C                  -
 -                    195                                   C                  -
 -                    196                                   C                  -
 -                    197                                   C                  -
 -                    198                                   C                  -
 -                    199                                   C                  -
 -                    200                                   C                  -
 -                    201                                   C                  -
 -                    202                                   C                  -
 -                    203                                   C                  -
 -                    204                                   C                  -
 -                    205                                   C                  -
 -                    206                                   C                  -
 -                    207                                   C                  -
 -                    208                                   C                  -
 -                    209                                   C                  -
 -                    210                                   C                  -
 -                    211                                   C                  -
 -                    212                                   C                  -
 -                    213                                   C                  -
 -                    214                                   C                  -
 -                    215                                   C                  -
 -                    216                                   C                  -
 -                    217                                   C                  -
 -                    218                                   C                  -
 -                    219                                   C                  -
 -                    220                                   C                  -
 -                    221                                   C                  -
 -                    222                                   C                  -
 -                    223                                   C                  -
 -                    224                                   C                  -
 -                    225                                   Na_ghost           -
 -------------------------------------------------------------------------------

 *******************************************************************************
 *******************************************************************************
 **                                                                           **
 **     #####                         ##              ##                      **
 **    ##   ##            ##          ##              ##                      **
 **   ##     ##                       ##            ######                    **
 **   ##     ##  ##   ##  ##   #####  ##  ##   ####   ##    #####    #####    **
 **   ##     ##  ##   ##  ##  ##      ## ##   ##      ##   ##   ##  ##   ##   **
 **   ##  ## ##  ##   ##  ##  ##      ####     ###    ##   ######   ######    **
 **    ##  ###   ##   ##  ##  ##      ## ##      ##   ##   ##       ##        **
 **     #######   #####   ##   #####  ##  ##  ####    ##    #####   ##        **
 **           ##                                                    ##        **
 **                                                                           **
 **                                                ... make the atoms dance   **
 **                                                                           **
 **            Copyright (C) by CP2K developers group (2000-2022)             **
 **                      J. Chem. Phys. 152, 194103 (2020)                    **
 **                                                                           **
 *******************************************************************************


 TOTAL NUMBERS AND MAXIMUM NUMBERS

  Total number of            - Atomic kinds:                                   2
                             - Atoms:                                        225
                             - Shell sets:                                   225
                             - Shells:                                      1125
                             - Primitive Cartesian functions:               1127
                             - Cartesian basis functions:                   3145
                             - Spherical basis functions:                   2921

  Maximum angular momentum of- Orbital basis functions:                        2
                             - Local part of the GTH pseudopotential:          2
                             - Non-local part of the GTH pseudopotential:      0


 SCF PARAMETERS         Density guess:                                    ATOMIC
                        --------------------------------------------------------
                        max_scf:                                             100
                        max_scf_history:                                       0
                        max_diis:                                              4
                        --------------------------------------------------------
                        eps_scf:                                        3.00E-07
                        eps_scf_history:                                0.00E+00
                        eps_diis:                                       1.00E-01
                        eps_eigval:                                     1.00E-05
                        --------------------------------------------------------
                        level_shift [a.u.]:                             0.000000
                        added MOs                                       100  100
                        --------------------------------------------------------
                        Mixing method:                            BROYDEN_MIXING
                                                charge density mixing in g-space
                        --------------------------------------------------------
                        Smear method:                                FERMI_DIRAC
                        Electronic temperature [K]:                        300.0
                        Electronic temperature [a.u.]:                  9.50E-04
                        Accuracy threshold:                             1.00E-10
                        --------------------------------------------------------
                        Outer loop SCF in use 
                        No variables optimised in outer loop
                        eps_scf                                         1.00E-06
                        max_scf                                               30
                        DIIS optimization
[...]
    27 Broy./Diag. 0.10E+00   23.3     0.00000016     -1317.1458366850  4.66E-07

  *** SCF run converged in    27 steps ***


  Electronic density on regular grids:       -905.0001410928       -0.0001410928
  Core density on regular grids:              904.9999999992       -0.0000000008
  Total charge density on r-space grids:       -0.0001410936
  Total charge density g-space grids:          -0.0001410936

  Overlap energy of the core charge distribution:               0.00003981593630
  Self energy of the core charge distribution:              -3088.28434542165087
  Core Hamiltonian energy:                                    974.82940558295149
  Hartree energy:                                            1190.07892041371110
  Exchange-correlation energy:                               -392.97452586141475
  Dispersion energy:                                           -0.79318112200106
  Electronic entropic energy:                                  -0.00215009254974
  Fermi energy:                                                -0.04616439891881

  Total energy:                                             -1317.14583668504565

  outer SCF iter =    2 RMS gradient =   0.16E-06 energy =      -1317.1458366850
  outer SCF loop converged in   2 iterations or  127 steps


  Integrated absolute spin density  :                               0.0000637079
  WARNING: S**2 computation does not yet treat fractional occupied orbitals

 *** WARNING in qs_loc_utils.F:1500 :: User requested the calculation of ***
 *** the localized wavefunction but the section LOCALIZE was not         ***
 *** specified. Localization will not be performed!                      ***


 -------------------------------------------------------------------------------
 -                                                                             -
 -                                 BSSE RESULTS                                -
 -                                                                             -
 -                 CP-corrected Total energy:    -1317.141374                  -
 -                                                                             -
 -                       1-body contribution:    -1270.025919                  -
 -                       1-body contribution:      -47.149033                  -
 -                                                                             -
 -                       2-body contribution:        0.033578                  -
 -                 BSSE-free interaction energy:        0.033578               -
 -------------------------------------------------------------------------------

 -------------------------------------------------------------------------------
 -                                                                             -
 -                                DBCSR STATISTICS                             -
 -                                                                             -
 -------------------------------------------------------------------------------
 COUNTER                                    TOTAL       BLAS       SMM       ACC
 flops     9 x     9 x     8               111456     100.0%      0.0%      0.0%
 flops     9 x     9 x     9               303264     100.0%      0.0%      0.0%
 flops     9 x     9 x    32              2674944     100.0%      0.0%      0.0%
 flops     9 x     9 x   136              2798064     100.0%      0.0%      0.0%
 flops     9 x     9 x   137              2818638     100.0%      0.0%      0.0%
 flops     9 x     9 x   132              3549744     100.0%      0.0%      0.0%
 flops     9 x     9 x   160             10886400     100.0%      0.0%      0.0%
 flops     9 x     9 x   128             17418240     100.0%      0.0%      0.0%
 flops     9 x    13 x     8             18031104     100.0%      0.0%      0.0%
 flops    13 x     9 x     8             18031104     100.0%      0.0%      0.0%
 flops     9 x    13 x     9             20284992     100.0%      0.0%      0.0%
 flops    13 x     9 x     9             20284992     100.0%      0.0%      0.0%
 flops     9 x    13 x    32            432746496     100.0%      0.0%      0.0%
 flops    13 x     9 x    32            432746496     100.0%      0.0%      0.0%
 flops     9 x    13 x   136            452664576     100.0%      0.0%      0.0%
 flops    13 x     9 x   136            452664576     100.0%      0.0%      0.0%
 flops     9 x    13 x   137            455992992     100.0%      0.0%      0.0%
 flops    13 x     9 x   137            455992992     100.0%      0.0%      0.0%
 flops     9 x    13 x   132            574269696     100.0%      0.0%      0.0%
 flops    13 x     9 x   132            574269696     100.0%      0.0%      0.0%
 flops     9 x    13 x   160           1761177600     100.0%      0.0%      0.0%
 flops    13 x     9 x   160           1761177600     100.0%      0.0%      0.0%
 flops     9 x    13 x   128           2817884160     100.0%      0.0%      0.0%
 flops    13 x     9 x   128           2817884160     100.0%      0.0%      0.0%
 flops    13 x    13 x     8           5860108800     100.0%      0.0%      0.0%
 flops    13 x    13 x     9           6592622400     100.0%      0.0%      0.0%
 flops    13 x    13 x    32         140642611200     100.0%      0.0%      0.0%
 flops    13 x    13 x   136         147115987200     100.0%      0.0%      0.0%
 flops    13 x    13 x   137         148197722400     100.0%      0.0%      0.0%
 flops    13 x    13 x   132         384518534400     100.0%      0.0%      0.0%
 flops    13 x    13 x   160         812238336000     100.0%      0.0%      0.0%
 flops    13 x    13 x   128        1299581337600     100.0%      0.0%      0.0%
 flops inhomo. stacks                           0       0.0%      0.0%      0.0%
 flops total                         2.957854E+12     100.0%      0.0%      0.0%
 flops max/rank                    189.807568E+09     100.0%      0.0%      0.0%
 matmuls inhomo. stacks                         0       0.0%      0.0%      0.0%
 matmuls total                           77947322     100.0%      0.0%      0.0%
 number of processed stacks                117370     100.0%      0.0%      0.0%
 average stack size                                   664.1       0.0       0.0
 marketing flops                     4.607809E+12
 -------------------------------------------------------------------------------
 # multiplications                            890
 max memory usage/rank               1.314976E+09
 # max total images/rank                        1
 # max 3D layers                                1
 # MPI messages exchanged                   85440
 MPI messages size (bytes):
  total size                        48.432357E+09
  min size                           0.000000E+00
  max size                         943.360000E+03
  average size                     566.858125E+03
 MPI breakdown and total messages size (bytes):
             size <=      128               10980                        0
       128 < size <=     8192                 732                   474336
      8192 < size <=    32768                   0                        0
     32768 < size <=   131072                4128                204984096
    131072 < size <=  4194304               69600              48226761168
   4194304 < size <= 16777216                   0                        0
  16777216 < size                               0                        0
 -------------------------------------------------------------------------------
 -                                                                             -
 -                      DBCSR MESSAGE PASSING PERFORMANCE                      -
 -                                                                             -
 -------------------------------------------------------------------------------
 ROUTINE             CALLS      AVE VOLUME [Bytes]
 MP_Bcast               33                     12.
 MP_Allreduce         6323                      8.
 MP_Alltoall         24980                 941168.
 MP_ISend            14240                 220465.
 MP_IRecv            14240                 201547.
 -------------------------------------------------------------------------------

 -------------------------------------------------------------------------------
 -                                                                             -
 -                                DBM STATISTICS                               -
 -                                                                             -
 -------------------------------------------------------------------------------
    M  x    N  x    K                                          COUNT     PERCENT
 -------------------------------------------------------------------------------

 -------------------------------------------------------------------------------
 -                                                                             -
 -                                GRID STATISTICS                              -
 -                                                                             -
 -------------------------------------------------------------------------------
 LP    KERNEL             BACKEND                              COUNT     PERCENT
 4     collocate general  REF                              168518488      49.72%
 4     integrate general  REF                              166781184      49.20%
 3     collocate general  REF                                1800578       0.53%
 3     integrate general  REF                                1782512       0.53%
 2     collocate general  REF                                  35378       0.01%
 2     integrate general  REF                                  34986       0.01%
 0     collocate general  REF                                  10800       0.00%
 -------------------------------------------------------------------------------

 MEMORY| Estimated peak process memory [MiB]                                1255

 -------------------------------------------------------------------------------
 -                                                                             -
 -                         MESSAGE PASSING PERFORMANCE                         -
 -                                                                             -
 -------------------------------------------------------------------------------

 ROUTINE             CALLS      AVE VOLUME [Bytes]
 MP_Group               24
 MP_Bcast             1456                 560322.
 MP_Allreduce         9373                    763.
 MP_Sync              1036
 MP_Alltoall         11240               22639808.
 MP_SendRecv         49320                 510460.
 MP_ISendRecv        38220                 515893.
 MP_Wait             61409
 MP_comm_split         122
 MP_ISend            16820                3160476.
 MP_IRecv            16820                3160705.
 MP_Recv               590                 720343.
 -------------------------------------------------------------------------------


 -------------------------------------------------------------------------------
 -                                                                             -
 -                           R E F E R E N C E S                               -
 -                                                                             -
 -------------------------------------------------------------------------------
 
 CP2K version 2023.1, the CP2K developers group (2023).
 CP2K is freely available from https://www.cp2k.org/ .

 Kuehne,Thomas D.; Iannuzzi,Marcella; Del Ben,Mauro;
 Rybkin,Vladimir V.; Seewald,Patrick; Stein,Frederick; Laino,Teodoro;
 Khaliullin,Rustam Z.; Schuett,Ole; Schiffmann,Florian; Golze,Dorothea;
 Wilhelm,Jan; Chulkov,Sergey; Bani-Hashemian,Mohammad Hossein;
 Weber,Valery; Borstnik,Urban; Taillefumier,Mathieu;
 Jakobovits,Alice Shoshana; Lazzaro,Alfio; Pabst,Hans; Mueller,Tiziano;
 Schade,Robert; Guidon,Manuel; Andermatt,Samuel; Holmberg,Nico;
 Schenter,Gregory K.; Hehn,Anna; Bussy,Augustin; Belleflamme,Fabian;
 Tabacchi,Gloria; Gloess,Andreas; Lass,Michael; Bethune,Iain;
 Mundy,Christopher J.; Plessl,Christian; Watkins,Matt;
 VandeVondele,Joost; Krack,Matthias; Hutter,Juerg. 
 The Journal of Chemical Physics, 152 (19), (2020). 
 CP2K: An electronic structure and molecular dynamics software package -
 Quickstep: Efficient and accurate electronic structure calculations.
 https://doi.org/10.1063/5.0007045

 Goerigk, Lars; Hansen, Andreas; Bauer, Christoph; Ehrlich, Stephan;
 Najibi, Asim; Grimme, Stefan. , 19 (48), (2017). 
 A look at the density functional theory zoo with the advanced GMTKN55 database
 for general main group thermochemistry, kinetics and noncovalent interactions.
 https://doi.org/10.1039/C7CP04913G

 Schuett, Ole; Messmer, Peter; Hutter, Juerg; VandeVondele, Joost. 
 Electronic Structure Calculations on Graphics Processing Units, John
 Wiley & Sons, Ltd, 173-190 (2016). 
 GPU-Accelerated Sparse Matrix-Matrix Multiplication for
 Linear Scaling Density Functional Theory.
 https://doi.org/10.1002/9781118670712.ch8

 Borstnik, U; VandeVondele, J; Weber, V; Hutter, J. 
 PARALLEL COMPUTING, 40 (5-6), 47-58 (2014). 
 Sparse matrix multiplication: The distributed block-compressed sparse
 row library.
 https://doi.org/10.1016/j.parco.2014.03.012

 Hutter, J; Iannuzzi, M; Schiffmann, F; VandeVondele, J. 
 WIREs Comput Mol Sci., 4 (1), 15-25 (2014). 
 CP2K: atomistic simulations of condensed matter systems.
 https://doi.org/10.1002/wcms.1159

 Marek, A; Blum, V; Johanni, R; Havu, V; Lang, B; Auckenthaler, T;
 Heinecke, A; Bungartz, H; Lederer, H. 
 Journal of Physics: Condensed Matter, 26 (21), (2014). 
 The ELPA library: scalable parallel eigenvalue solutions for
 electronic structure
 theory and computational science.
 https://doi.org/10.1088/0953-8984/26/21/213201

 Grimme, S; Ehrlich, S; Goerigk, L. 
 JOURNAL OF COMPUTATIONAL CHEMISTRY, 32, 1456 (2011). 
 Effect of the damping function in dispersion corrected density functional theory.
 https://doi.org/10.1002/jcc.21759

 Grimme, S; Antony, J; Ehrlich, S; Krieg, H. 
 JOURNAL OF CHEMICAL PHYSICS, 132 (15), 154104 (2010). 
 A consistent and accurate ab initio parametrization of density
 functional dispersion correction (DFT-D) for the 94 elements H-Pu.
 https://doi.org/10.1063/1.3382344

 VandeVondele, J; Hutter, J. 
 JOURNAL OF CHEMICAL PHYSICS, 127 (11), 114105 (2007). 
 Gaussian basis sets for accurate calculations on molecular systems in
 gas and condensed phases.
 https://doi.org/10.1063/1.2770708

 Krack, M. 
 THEORETICAL CHEMISTRY ACCOUNTS, 114 (1-3), 145-152 (2005). 
 Pseudopotentials for H to Kr optimized for gradient-corrected
 exchange-correlation functionals.
 https://doi.org/10.1007/s00214-005-0655-y

 VandeVondele, J; Krack, M; Mohamed, F; Parrinello, M; Chassaing, T;
 Hutter, J. COMPUTER PHYSICS COMMUNICATIONS, 167 (2), 103-128 (2005). 
 QUICKSTEP: Fast and accurate density functional calculations using a
 mixed Gaussian and plane waves approach.
 https://doi.org/10.1016/j.cpc.2004.12.014

 Frigo, M; Johnson, SG. 
 PROCEEDINGS OF THE IEEE, 93 (2), 216-231 (2005). 
 The design and implementation of FFTW3.
 https://doi.org/10.1109/JPROC.2004.840301

 Hartwigsen, C; Goedecker, S; Hutter, J. 
 PHYSICAL REVIEW B, 58 (7), 3641-3662 (1998). 
 Relativistic separable dual-space Gaussian pseudopotentials from H to Rn.
 https://doi.org/10.1103/PhysRevB.58.3641

 Lippert, G; Hutter, J; Parrinello, M. 
 MOLECULAR PHYSICS, 92 (3), 477-487 (1997). 
 A hybrid Gaussian and plane wave density functional scheme.
 https://doi.org/10.1080/002689797170220

 Goedecker, S; Teter, M; Hutter, J. 
 PHYSICAL REVIEW B, 54 (3), 1703-1710 (1996). 
 Separable dual-space Gaussian pseudopotentials.
 https://doi.org/10.1103/PhysRevB.54.1703

 BECKE, AD. PHYSICAL REVIEW A, 38 (6), 3098-3100 (1988). 
 DENSITY-FUNCTIONAL EXCHANGE-ENERGY APPROXIMATION WITH CORRECT
 ASYMPTOTIC-BEHAVIOR.
 https://doi.org/10.1103/PhysRevA.38.3098

 LEE, CT; YANG, WT; PARR, RG. 
 PHYSICAL REVIEW B, 37 (2), 785-789 (1988). 
 DEVELOPMENT OF THE COLLE-SALVETTI CORRELATION-ENERGY FORMULA INTO A
 FUNCTIONAL OF THE ELECTRON-DENSITY.
 https://doi.org/10.1103/PhysRevB.37.785


 -------------------------------------------------------------------------------
 -                                                                             -
 -                                T I M I N G                                  -
 -                                                                             -
 -------------------------------------------------------------------------------
 SUBROUTINE                       CALLS  ASD         SELF TIME        TOTAL TIME
                                MAXIMUM       AVERAGE  MAXIMUM  AVERAGE  MAXIMUM
 CP2K                                 1  1.0    0.077    0.096 9171.113 9171.115
 qs_energies                          5  2.0    0.001    0.001 9168.481 9168.483
 scf_env_do_scf                       5  3.0    0.001    0.003 9141.113 9141.821
 scf_env_do_scf_inner_loop          445  4.0    0.031    0.063 9141.110 9141.816
 qs_scf_new_mos                     445  5.0    0.017    0.020 4337.222 4338.939
 eigensolver                        890  6.0    0.100    0.146 4219.686 4219.882
 cp_fm_diag_elpa                    768  7.0    0.009    0.011 2685.701 2686.042
 cp_fm_diag_elpa_base               768  8.0 2674.835 2677.952 2684.961 2684.963
 qs_ks_update_qs_env                445  5.0    0.005    0.005 2269.499 2269.622
 rebuild_ks_matrix                  445  6.0    0.003    0.004 2266.994 2267.093
 qs_ks_build_kohn_sham_matrix       445  7.0    0.107    0.117 2266.991 2267.090
 qs_rho_update_rho_low              450  5.0    0.006    0.007 1991.995 1992.289
 calculate_rho_elec                 900  6.0    2.721    2.829 1991.989 1992.283
 sum_up_and_integrate               445  8.0    9.630   10.342 1901.798 1901.974
 integrate_v_rspace                 890  9.0    0.062    0.076 1892.160 1892.755
 grid_integrate_task_list           890 10.0 1596.696 1625.194 1596.696 1625.194
 grid_collocate_task_list           900  7.0 1580.891 1619.624 1580.891 1619.624
 cp_fm_triangular_multiply         2670  7.0 1524.412 1527.472 1524.412 1527.472
 pw_transfer                      10278  9.0    1.352    1.428  628.172  642.213
 fft_wrap_pw1pw2                   9388  9.9    0.167    0.178  618.528  632.745
 fft_wrap_pw1pw2_150               4018 10.2   44.023   44.632  567.504  586.784
 gspace_mixing                      439  5.0    2.692    2.789  556.172  556.173
 fft3d_ps                          9388 11.9  264.816  288.070  434.769  457.568
 density_rs2pw                      900  7.0    0.080    0.092  395.041  433.221
 broyden_mixing                     439  6.0  382.795  388.207  393.263  395.062
 qs_vxc_create                      445  8.0    0.015    0.018  266.915  270.590
 xc_vxc_pw_create                   445  9.0   25.350   27.283  266.900  270.574
 potential_pw2rs                    890 10.0    0.259    0.285  258.583  259.580
 rs_pw_transfer                    7165  9.5    0.180    0.201  206.136  239.173
 -------------------------------------------------------------------------------

 The number of warnings for this run is : 7
 
 -------------------------------------------------------------------------------
  **** **** ******  **  PROGRAM ENDED AT                 2025-05-16 16:58:39.842
 ***** ** ***  *** **   PROGRAM RAN ON                                sebnode130
 **    ****   ******    PROGRAM RAN BY                                    luehrs
 ***** **    ** ** **   PROGRAM PROCESS ID                               1484447
  **** **  *******  **  PROGRAM STOPPED IN /home/luehrs/PhD/Sodium_batteries/Sod
                                           ium-graphene-interlayer/AB_Interlayer
                                           /Zig-Zag1_3.76A
