     113
 i =      107, E =      -652.1119528864
  C         8.6148682631       15.0212606090       -0.6392444603
  C         9.8802194291       15.5719806040       -0.4512743913
  C        11.0556601354       14.9564237495       -0.1977028715
  C        12.2961126024       15.7598652837        0.0196453824
  C        13.5393099510       14.9520591778        0.1759490210
  C        14.7233687898       15.5682608682        0.3696550268
  C        16.0083253688       15.0376998489        0.4253136784
  C        17.2652826269       15.5611446194        0.5463055365
  C        18.4934140674       14.9530716110        0.3714490036
  C        19.7126202131       15.6244391483        0.2772815944
  C        20.9119598714       15.0164244451       -0.0854315702
  C        22.1201138513       15.5499974963       -0.4768922566
  C        23.3427914747       14.9667054884       -0.7097005552
  C        24.5587177343       15.5597525493       -1.0744045230
  C        25.7883408682       14.9086434463       -0.9101158936
  C        27.0255417931       15.5192829332       -0.9494732370
  C        25.8048527768       13.4808596886       -0.5934788619
  C        23.3515473048       13.5033105137       -0.4658403372
  C        20.9048811357       13.5277153489       -0.1113300527
  C        18.4620639450       13.5047100216        0.1831027995
  C        15.9927913980       13.5467927966        0.2713942382
  C        14.7604393085       12.8284589239        0.1745530489
  C        13.5236631271       13.5148392374        0.1107254231
  C        12.3013520135       12.8059955991       -0.0225614465
  C        11.0784855649       13.5174637845       -0.1680526208
  C         9.8492761594       12.8247627917       -0.2832539057
  C         8.6237152924       13.5362941088       -0.4613015299
  C         7.3917272355       12.8132597688       -0.4547059840
  C        24.5742045040       12.7931070854       -0.4515577649
  C        22.1276941767       12.8198586773       -0.2556500931
  C        19.6856068350       12.8146891512        0.0098876294
  C        17.2219907381       12.8270186774        0.1897124394
  C        24.5772480564       11.3737266341       -0.2968835620
  C        23.3507382891       10.6684157494       -0.2162077686
  C        22.1258012955       11.3863971139       -0.1892389298
  C        20.8983214839       10.6724840360       -0.1077148744
  C        19.6768387379       11.3840493303       -0.0335069402
  C        18.4419063003       10.6779155908        0.0137904050
  C        17.2143144079       11.3919445711        0.0918720978
  C        15.9888527268       10.6769991778        0.0826453293
  C        14.7610023531       11.3935411421        0.1018279819
  C        13.5337151315       10.6787697531        0.0401920026
  C        12.3010430201       11.3864733412       -0.0208914534
  C        11.0669056879       10.6767092789       -0.0851014502
  C         9.8440966378       11.3896508935       -0.1921290484
  C         8.6162524785       10.6723128901       -0.2039133470
  C         7.3918699970       11.3835937975       -0.2973732271
  C         6.1640114159       10.6692096464       -0.2570503033
  C         6.1612991778        9.2439896512       -0.1632104978
  C         7.3854608979        8.5327861692       -0.0974422001
  C         8.6135545199        9.2479257440       -0.1097311266
  C         9.8421440773        8.5359560635       -0.0380681056
  C        11.0668746550        9.2499816630       -0.0361647337
  C        12.2989876074        8.5375075301        0.0050377905
  C        13.5301847724        9.2504214073        0.0198465513
  C        14.7547837505        8.5360694452        0.0108911358
  C        15.9860927527        9.2500416180        0.0231214949
  C        17.2111731397        8.5364660324       -0.0281395071
  C        18.4386082925        9.2502704994       -0.0344281582
  C        19.6672354052        8.5346493220       -0.0931138997
  C        20.8944444087        9.2439505463       -0.1110627951
  C        22.1220770220        8.5282372107       -0.1370859933
  C        23.3501703425        9.2403990619       -0.1630321398
  C        22.1209512926        7.1023341013       -0.1400138504
  C        20.8896906789        6.3930557081       -0.1812682220
  C        19.6656195073        7.1068241392       -0.1541268694
  C        18.4342292945        6.3958291059       -0.1892091419
  C        17.2082859979        7.1079120748       -0.1077170806
  C        15.9807400928        6.3964406239       -0.1157416057
  C        14.7517944126        7.1087539891       -0.0337395666
  C        13.5253809305        6.3985196008       -0.0095202029
  C        12.2979530472        7.1124596547        0.0249567557
  C        11.0670756065        6.3998209529        0.0720278584
  C         9.8416999667        7.1092518643        0.0416655001
  C         8.6105469819        6.3965573558        0.0835324642
  C         7.3832847801        7.1056823085       -0.0005353475
  C         6.1566018377        6.3922894028        0.0079688665
  C         4.9271404140        7.1030862358       -0.0792250100
  C         4.9290294755        8.5295244808       -0.1398641614
  C         3.7003727573        6.3912005508       -0.1010313387
  C         3.6973522630        4.9557944735       -0.0703312265
  C         4.9174965921        4.2597270155        0.1087884455
  C         6.1522603879        4.9646199414        0.1474382425
  C         7.3752576907        4.2791771465        0.3387038905
  C         8.6077267019        4.9736272279        0.2507773231
  C         9.8421838825        4.2796880513        0.3399899624
  C        11.0657058518        4.9685208461        0.1711585901
  C        12.2957570960        4.2606623193        0.0989362768
  C        13.5215836670        4.9628199223       -0.0444533021
  C        14.7394723940        4.2667880798       -0.2365826970
  C        15.9747135028        4.9701505829       -0.2625068791
  C        17.1960488736        4.2835364129       -0.4557068110
  C        18.4297122572        4.9721550865       -0.3570414162
  C        19.6622191094        4.2730385096       -0.4441996962
  C        20.8875120106        4.9611015066       -0.2763902361
  C        19.6694419324        2.8212199940       -0.7320942918
  C        18.4251850921        2.2501446870       -1.0137664629
  C        17.1822308594        2.8457524624       -0.8037841200
  C        15.9330611659        2.2327088535       -0.8300979465
  C        14.7209879391        2.8011326000       -0.4334835990
  C        13.5046598066        2.1883379842       -0.1758821145
  C        12.3001540588        2.7846850946        0.1702063184
  C        11.0918121955        2.2076754610        0.5569456250
  C         9.8532554808        2.8303353435        0.6312554277
  C         8.6107292581        2.2475990043        0.8947753187
  C         6.1184274086        2.2216092109        0.6567264499
  C         7.3656130787        2.8342768982        0.6641237490
  C         4.9028007387        2.7909922137        0.2777943825
  C         3.6853959437        2.1744246317        0.0269309195
  C         2.4740775319        2.7786175628       -0.2843135641
  C         2.4702869469        4.2545890589       -0.2088738651
  C         1.2598961253        2.2021696401       -0.6497102105
  O        12.3016845178       16.9871401091        0.0511247493
