 DBCSR| CPU Multiplication driver                                           BLAS (U)
 DBCSR| Multrec recursion limit                                              512 (U)
 DBCSR| Multiplication stack size                                           1000 (D)
 DBCSR| Maximum elements for images                                    UNLIMITED (U)
 DBCSR| Multiplicative factor virtual images                                   1 (U)
 DBCSR| Use multiplication densification                                       T (D)
 DBCSR| Multiplication size stacks                                             3 (U)
 DBCSR| Use memory pool for CPU allocation                                     F (U)
 DBCSR| Number of 3D layers                                               SINGLE (U)
 DBCSR| Use MPI memory allocation                                              F (U)
 DBCSR| Use RMA algorithm                                                      F (U)
 DBCSR| Use Communication thread                                               T (U)
 DBCSR| Communication thread load                                             87 (D)
 DBCSR| MPI: My process id                                                     0
 DBCSR| MPI: Number of processes                                              16
 DBCSR| OMP: Current number of threads                                         1
 DBCSR| OMP: Max number of threads                                             1
 DBCSR| Split modifier for TAS multiplication algorithm                  1.0E+00 (U)


  **** **** ******  **  PROGRAM STARTED AT               2025-06-14 22:19:25.856
 ***** ** ***  *** **   PROGRAM STARTED ON                            sebnode133
 **    ****   ******    PROGRAM STARTED BY                                luehrs
 ***** **    ** ** **   PROGRAM PROCESS ID                               1807180
  **** **  *******  **  PROGRAM STARTED IN /home/luehrs/PhD/Sodium_batteries/Sod
                                           ium-graphene-curvature/Sinus_surface/
                                           Sinus_9

 CP2K| version string:                                       CP2K version 2023.1
 CP2K| source code revision number:                                  git:b888bd8
 CP2K| cp2kflags: omp libint fftw3 libxc elpa parallel scalapack spglib         
 CP2K| is freely available from                            https://www.cp2k.org/
 CP2K| Program compiled at                          Tue Jan 10 19:52:03 UTC 2023
 CP2K| Program compiled on                                            x86-ubc-01
 CP2K| Program compiled for                                Linux-x86_64-gfortran
 CP2K| Data directory path                                       /usr/share/cp2k
 CP2K| Input file name                                         input.zig-zag.inp

 GLOBAL| Force Environment number                                              1
 GLOBAL| Basis set file name                                      ./BASIS_MOLOPT
 GLOBAL| Potential file name                                    ./GTH_POTENTIALS
 GLOBAL| MM Potential file name                                     MM_POTENTIAL
 GLOBAL| Coordinate file name                                  sinus_relaxed.xyz
 GLOBAL| Method name                                                        CP2K
 GLOBAL| Project name                                 graphene_sinus_Sodium_BSSE
 GLOBAL| Run type                                                           BSSE
 GLOBAL| FFT library                                                       FFTW3
 GLOBAL| Diagonalization library                                            ELPA
 GLOBAL| DGEMM library                                                      BLAS
 GLOBAL| Minimum number of eigenvectors for ELPA usage                        16
 GLOBAL| Orthonormality check for eigenvectors                          DISABLED
 GLOBAL| Matrix multiplication library                                 ScaLAPACK
 GLOBAL| All-to-all communication in single precision                          F
 GLOBAL| FFTs using library dependent lengths                                  F
 GLOBAL| Grid backend                                                       AUTO
 GLOBAL| Global print level                                                  LOW
 GLOBAL| MPI I/O enabled                                                       T
 GLOBAL| Total number of message passing processes                            16
 GLOBAL| Number of threads for this process                                    1
 GLOBAL| This output is from process                                           0
 GLOBAL| Stack size for threads created by OpenMP (OMP_STACKSIZE)        default
 GLOBAL| CPU model name                          AMD EPYC 7513 32-Core Processor

 MEMORY| system memory details [Kb]
 MEMORY|                        rank 0           min           max       average
 MEMORY| MemTotal            131828104     131828104     131828104     131828104
 MEMORY| MemFree              90102948      90102948      90102948      90102948
 MEMORY| Buffers                252816        252816        252816        252816
 MEMORY| Cached                1430840       1430840       1430844       1430840
 MEMORY| Slab                   854456        854456        854456        854456
 MEMORY| SReclaimable           201740        201740        201740        201740
 MEMORY| MemLikelyFree        91988344      91988344      91988348      91988344


 GENERATE|  Preliminary Number of Bonds generated:                             0
 GENERATE|  Achieved consistency in connectivity generation.

 *******************************************************************************
 *******************************************************************************
 **                                                                           **
 **     #####                         ##              ##                      **
 **    ##   ##            ##          ##              ##                      **
 **   ##     ##                       ##            ######                    **
 **   ##     ##  ##   ##  ##   #####  ##  ##   ####   ##    #####    #####    **
 **   ##     ##  ##   ##  ##  ##      ## ##   ##      ##   ##   ##  ##   ##   **
 **   ##  ## ##  ##   ##  ##  ##      ####     ###    ##   ######   ######    **
 **    ##  ###   ##   ##  ##  ##      ## ##      ##   ##   ##       ##        **
 **     #######   #####   ##   #####  ##  ##  ####    ##    #####   ##        **
 **           ##                                                    ##        **
 **                                                                           **
 **                                                ... make the atoms dance   **
 **                                                                           **
 **            Copyright (C) by CP2K developers group (2000-2022)             **
 **                      J. Chem. Phys. 152, 194103 (2020)                    **
 **                                                                           **
 *******************************************************************************


 TOTAL NUMBERS AND MAXIMUM NUMBERS

  Total number of            - Atomic kinds:                                   2
                             - Atoms:                                        193
                             - Shell sets:                                   193
                             - Shells:                                       965
                             - Primitive Cartesian functions:                967
                             - Cartesian basis functions:                   2697
                             - Spherical basis functions:                   2505

  Maximum angular momentum of- Orbital basis functions:                        2
                             - Local part of the GTH pseudopotential:          2
                             - Non-local part of the GTH pseudopotential:      1


 SCF PARAMETERS         Density guess:                                    ATOMIC
                        --------------------------------------------------------
                        max_scf:                                             300
                        max_scf_history:                                       0
                        max_diis:                                              4
                        --------------------------------------------------------
                        eps_scf:                                        3.00E-07
                        eps_scf_history:                                0.00E+00
                        eps_diis:                                       1.00E-01
                        eps_eigval:                                     1.00E-05
                        --------------------------------------------------------
                        level_shift [a.u.]:                             0.000000
                        added MOs                                       100    0
                        --------------------------------------------------------
                        Mixing method:                            BROYDEN_MIXING
                                                charge density mixing in g-space
                        --------------------------------------------------------
                        Smear method:                                FERMI_DIRAC
                        Electronic temperature [K]:                        300.0
                        Electronic temperature [a.u.]:                  9.50E-04
                        Accuracy threshold:                             1.00E-10
                        --------------------------------------------------------
                        Outer loop SCF in use 
                        No variables optimised in outer loop
                        eps_scf                                         1.00E-06
                        max_scf                                              300
                        DIIS optimization
                        DIIS buffer length                                     3
                        step_size                                       5.00E-01

 -------------------------------------------------------------------------------
 -                                                                             -
 -  BSSE CALCULATION         FRAGMENT CONF: 10        FRAGMENT SUBCONF: 10     -
 -                           CHARGE =     0           MULTIPLICITY =     0     -
 -                                                                             -
 -                 ATOM INDEX                              ATOM NAME           -
 -                 ----------                              ---------           -
 -                      1                                   C                  -
 -                      2                                   C                  -
 -                      3                                   C                  -
 -                      4                                   C                  -
 -                      5                                   C                  -
 -                      6                                   C                  -
 -                      7                                   C                  -
 -                      8                                   C                  -
 -                      9                                   C                  -
 -                     10                                   C                  -
 -                     11                                   C                  -
 -                     12                                   C                  -
 -                     13                                   C                  -
 -                     14                                   C                  -
 -                     15                                   C                  -
 -                     16                                   C                  -
 -                     17                                   C                  -
 -                     18                                   C                  -
 -                     19                                   C                  -
 -                     20                                   C                  -
 -                     21                                   C                  -
 -                     22                                   C                  -
 -                     23                                   C                  -
 -                     24                                   C                  -
 -                     25                                   C                  -
 -                     26                                   C                  -
 -                     27                                   C                  -
 -                     28                                   C                  -
 -                     29                                   C                  -
 -                     30                                   C                  -
 -                     31                                   C                  -
 -                     32                                   C                  -
 -                     33                                   C                  -
 -                     34                                   C                  -
 -                     35                                   C                  -
 -                     36                                   C                  -
 -                     37                                   C                  -
 -                     38                                   C                  -
 -                     39                                   C                  -
 -                     40                                   C                  -
 -                     41                                   C                  -
 -                     42                                   C                  -
 -                     43                                   C                  -
 -                     44                                   C                  -
 -                     45                                   C                  -
 -                     46                                   C                  -
 -                     47                                   C                  -
 -                     48                                   C                  -
 -                     49                                   C                  -
 -                     50                                   C                  -
 -                     51                                   C                  -
 -                     52                                   C                  -
 -                     53                                   C                  -
 -                     54                                   C                  -
 -                     55                                   C                  -
 -                     56                                   C                  -
 -                     57                                   C                  -
 -                     58                                   C                  -
 -                     59                                   C                  -
 -                     60                                   C                  -
 -                     61                                   C                  -
 -                     62                                   C                  -
 -                     63                                   C                  -
 -                     64                                   C                  -
 -                     65                                   C                  -
 -                     66                                   C                  -
 -                     67                                   C                  -
 -                     68                                   C                  -
 -                     69                                   C                  -
 -                     70                                   C                  -
 -                     71                                   C                  -
 -                     72                                   C                  -
 -                     73                                   C                  -
 -                     74                                   C                  -
 -                     75                                   C                  -
 -                     76                                   C                  -
 -                     77                                   C                  -
 -                     78                                   C                  -
 -                     79                                   C                  -
 -                     80                                   C                  -
 -                     81                                   C                  -
 -                     82                                   C                  -
 -                     83                                   C                  -
 -                     84                                   C                  -
 -                     85                                   C                  -
 -                     86                                   C                  -
 -                     87                                   C                  -
 -                     88                                   C                  -
 -                     89                                   C                  -
 -                     90                                   C                  -
 -                     91                                   C                  -
 -                     92                                   C                  -
 -                     93                                   C                  -
 -                     94                                   C                  -
 -                     95                                   C                  -
 -                     96                                   C                  -
 -                     97                                   C                  -
 -                     98                                   C                  -
 -                     99                                   C                  -
 -                    100                                   C                  -
 -                    101                                   C                  -
 -                    102                                   C                  -
 -                    103                                   C                  -
 -                    104                                   C                  -
 -                    105                                   C                  -
 -                    106                                   C                  -
 -                    107                                   C                  -
 -                    108                                   C                  -
 -                    109                                   C                  -
 -                    110                                   C                  -
 -                    111                                   C                  -
 -                    112                                   C                  -
 -                    113                                   C                  -
 -                    114                                   C                  -
 -                    115                                   C                  -
 -                    116                                   C                  -
 -                    117                                   C                  -
 -                    118                                   C                  -
 -                    119                                   C                  -
 -                    120                                   C                  -
 -                    121                                   C                  -
 -                    122                                   C                  -
 -                    123                                   C                  -
 -                    124                                   C                  -
 -                    125                                   C                  -
 -                    126                                   C                  -
 -                    127                                   C                  -
 -                    128                                   C                  -
 -                    129                                   C                  -
 -                    130                                   C                  -
 -                    131                                   C                  -
 -                    132                                   C                  -
 -                    133                                   C                  -
 -                    134                                   C                  -
 -                    135                                   C                  -
 -                    136                                   C                  -
 -                    137                                   C                  -
 -                    138                                   C                  -
 -                    139                                   C                  -
 -                    140                                   C                  -
 -                    141                                   C                  -
 -                    142                                   C                  -
 -                    143                                   C                  -
 -                    144                                   C                  -
 -                    145                                   C                  -
 -                    146                                   C                  -
 -                    147                                   C                  -
 -                    148                                   C                  -
 -                    149                                   C                  -
 -                    150                                   C                  -
 -                    151                                   C                  -
 -                    152                                   C                  -
 -                    153                                   C                  -
 -                    154                                   C                  -
 -                    155                                   C                  -
 -                    156                                   C                  -
 -                    157                                   C                  -
 -                    158                                   C                  -
 -                    159                                   C                  -
 -                    160                                   C                  -
 -                    161                                   C                  -
 -                    162                                   C                  -
 -                    163                                   C                  -
 -                    164                                   C                  -
 -                    165                                   C                  -
 -                    166                                   C                  -
 -                    167                                   C                  -
 -                    168                                   C                  -
 -                    169                                   C                  -
 -                    170                                   C                  -
 -                    171                                   C                  -
 -                    172                                   C                  -
 -                    173                                   C                  -
 -                    174                                   C                  -
 -                    175                                   C                  -
 -                    176                                   C                  -
 -                    177                                   C                  -
 -                    178                                   C                  -
 -                    179                                   C                  -
 -                    180                                   C                  -
 -                    181                                   C                  -
 -                    182                                   C                  -
 -                    183                                   C                  -
 -                    184                                   C                  -
 -                    185                                   C                  -
 -                    186                                   C                  -
 -                    187                                   C                  -
 -                    188                                   C                  -
 -                    189                                   C                  -
 -                    190                                   C                  -
 -                    191                                   C                  -
 -                    192                                   C                  -
 -------------------------------------------------------------------------------

 *******************************************************************************
 *******************************************************************************
 **                                                                           **
 **     #####                         ##              ##                      **
 **    ##   ##            ##          ##              ##                      **
 **   ##     ##                       ##            ######                    **
 **   ##     ##  ##   ##  ##   #####  ##  ##   ####   ##    #####    #####    **
 **   ##     ##  ##   ##  ##  ##      ## ##   ##      ##   ##   ##  ##   ##   **
 **   ##  ## ##  ##   ##  ##  ##      ####     ###    ##   ######   ######    **
 **    ##  ###   ##   ##  ##  ##      ## ##      ##   ##   ##       ##        **
 **     #######   #####   ##   #####  ##  ##  ####    ##    #####   ##        **
 **           ##                                                    ##        **
 **                                                                           **
 **                                                ... make the atoms dance   **
 **                                                                           **
 **            Copyright (C) by CP2K developers group (2000-2022)             **
 **                      J. Chem. Phys. 152, 194103 (2020)                    **
 **                                                                           **
 *******************************************************************************


 TOTAL NUMBERS AND MAXIMUM NUMBERS

  Total number of            - Atomic kinds:                                   1
                             - Atoms:                                        192
                             - Shell sets:                                   192
                             - Shells:                                       960
                             - Primitive Cartesian functions:                960
                             - Cartesian basis functions:                   2688
                             - Spherical basis functions:                   2496

  Maximum angular momentum of- Orbital basis functions:                        2
                             - Local part of the GTH pseudopotential:          2
                             - Non-local part of the GTH pseudopotential:      0


 SCF PARAMETERS         Density guess:                                    ATOMIC
                        --------------------------------------------------------
                        max_scf:                                             300
                        max_scf_history:                                       0
                        max_diis:                                              4
                        --------------------------------------------------------
                        eps_scf:                                        3.00E-07
                        eps_scf_history:                                0.00E+00
                        eps_diis:                                       1.00E-01
                        eps_eigval:                                     1.00E-05
                        --------------------------------------------------------
                        level_shift [a.u.]:                             0.000000
                        added MOs                                       100    0
                        --------------------------------------------------------
                        Mixing method:                            BROYDEN_MIXING
                                                charge density mixing in g-space
                        --------------------------------------------------------
                        Smear method:                                FERMI_DIRAC
                        Electronic temperature [K]:                        300.0
                        Electronic temperature [a.u.]:                  9.50E-04
                        Accuracy threshold:                             1.00E-10
                        --------------------------------------------------------
                        Outer loop SCF in use 
                        No variables optimised in outer loop
                        eps_scf                                         1.00E-06
                        max_scf                                              300
                        DIIS optimization
                        DIIS buffer length                                     3
                        step_size                                       5.00E-01

 Number of electrons:                                                        768
 Number of occupied orbitals:                                                384
 Number of molecular orbitals:                                               484

 Number of orbital functions:                                               2496
 Number of independent orbital functions:                                   2496

 Extrapolation method: initial_guess


 SCF WAVEFUNCTION OPTIMIZATION

  Step     Update method      Time    Convergence         Total energy    Change
  ------------------------------------------------------------------------------
     1 NoMix/Diag. 0.10E+00  133.7     0.92572912     -1085.8647380644 -1.09E+03
     2 Broy./Diag. 0.10E+00  160.0     0.00230726     -1044.4908392945  4.14E+01
     3 Broy./Diag. 0.10E+00  151.2     0.02567013     -1076.5250348617 -3.20E+01
     4 Broy./Diag. 0.10E+00  133.8     0.00041744     -1090.1692227309 -1.36E+01
     5 Broy./Diag. 0.10E+00  154.4     0.00326849     -1090.7523875166 -5.83E-01
     6 Broy./Diag. 0.10E+00   88.8     0.00014855     -1091.9243076640 -1.17E+00
     7 Broy./Diag. 0.10E+00  161.9     0.00151162     -1092.4421983308 -5.18E-01
     8 Broy./Diag. 0.10E+00  152.8     0.00008396     -1092.8049119931 -3.63E-01
     9 Broy./Diag. 0.10E+00  107.7     0.00144620     -1092.9717175498 -1.67E-01
    10 Broy./Diag. 0.10E+00  155.9     0.00011407     -1093.1765147578 -2.05E-01
    11 Broy./Diag. 0.10E+00  160.3     0.00123425     -1093.1778060425 -1.29E-03
    12 Broy./Diag. 0.10E+00  146.7     0.00005797     -1093.2445854446 -6.68E-02
    13 Broy./Diag. 0.10E+00  155.2     0.00052169     -1093.2316950655  1.29E-02
    14 Broy./Diag. 0.10E+00  136.5     0.00004057     -1093.2787248037 -4.70E-02
    15 Broy./Diag. 0.10E+00  165.4     0.00025173     -1093.3318470067 -5.31E-02
    16 Broy./Diag. 0.10E+00  147.8     0.00002869     -1093.3576274333 -2.58E-02
    17 Broy./Diag. 0.10E+00  159.2     0.00009343     -1093.3454102456  1.22E-02
    18 Broy./Diag. 0.10E+00  136.5     0.00003420     -1093.3349486861  1.05E-02
    19 Broy./Diag. 0.10E+00  152.9     0.00002235     -1093.3317909131  3.16E-03
    20 Broy./Diag. 0.10E+00  143.1     0.00003047     -1093.3307505745  1.04E-03
    21 Broy./Diag. 0.10E+00  137.3     0.00002584     -1093.3309667592 -2.16E-04
    22 Broy./Diag. 0.10E+00  162.0     0.00004444     -1093.3344670940 -3.50E-03
    23 Broy./Diag. 0.10E+00  160.4     0.00004365     -1093.3382624635 -3.80E-03
    24 Broy./Diag. 0.10E+00  139.3     0.00002876     -1093.3394275608 -1.17E-03
    25 Broy./Diag. 0.10E+00  157.5     0.00002713     -1093.3357355877  3.69E-03
    26 Broy./Diag. 0.10E+00  154.3     0.00000866     -1093.3360959857 -3.60E-04
    27 Broy./Diag. 0.10E+00  161.9     0.00004853     -1093.3413446398 -5.25E-03
    28 Broy./Diag. 0.10E+00  162.5     0.00000986     -1093.3489479288 -7.60E-03
    29 Broy./Diag. 0.10E+00  151.9     0.00002745     -1093.3551851032 -6.24E-03
    30 Broy./Diag. 0.10E+00  117.3     0.00000734     -1093.3597264218 -4.54E-03
    31 Broy./Diag. 0.10E+00  124.7     0.00001944     -1093.3601941093 -4.68E-04
    32 Broy./Diag. 0.10E+00  161.4     0.00001390     -1093.3606618597 -4.68E-04
    33 Broy./Diag. 0.10E+00  132.4     0.00000744     -1093.3601007796  5.61E-04
    34 Broy./Diag. 0.10E+00  161.7     0.00002705     -1093.3603060504 -2.05E-04
    35 Broy./Diag. 0.10E+00  162.4     0.00000801     -1093.3619447193 -1.64E-03
    36 Broy./Diag. 0.10E+00  164.9     0.00001414     -1093.3630713973 -1.13E-03
    37 Broy./Diag. 0.10E+00  122.8     0.00000734     -1093.3627121091  3.59E-04
    38 Broy./Diag. 0.10E+00  132.8     0.00000429     -1093.3618125600  9.00E-04
    39 Broy./Diag. 0.10E+00  174.9     0.00000600     -1093.3610305245  7.82E-04
    40 Broy./Diag. 0.10E+00  153.4     0.00000131     -1093.3609493573  8.12E-05
    41 Broy./Diag. 0.10E+00  158.3     0.00000350     -1093.3613818537 -4.32E-04
    42 Broy./Diag. 0.10E+00  179.4     0.00000158     -1093.3618609124 -4.79E-04
    43 Broy./Diag. 0.10E+00  158.8     0.00000159     -1093.3623671234 -5.06E-04
    44 Broy./Diag. 0.10E+00  157.4     0.00000405     -1093.3625859981 -2.19E-04
    45 Broy./Diag. 0.10E+00  161.4     0.00000113     -1093.3625050909  8.09E-05
    46 Broy./Diag. 0.10E+00  155.5     0.00000373     -1093.3622446216  2.60E-04
    47 Broy./Diag. 0.10E+00  155.4     0.00000131     -1093.3623731573 -1.29E-04
    48 Broy./Diag. 0.10E+00  146.5     0.00000279     -1093.3626421185 -2.69E-04
    49 Broy./Diag. 0.10E+00  152.7     0.00000166     -1093.3628892600 -2.47E-04
    50 Broy./Diag. 0.10E+00  168.3     0.00000107     -1093.3629516950 -6.24E-05
    51 Broy./Diag. 0.10E+00  139.7     0.00000167     -1093.3629030177  4.87E-05
    52 Broy./Diag. 0.10E+00  159.4     0.00000028     -1093.3628929573  1.01E-05

  *** SCF run converged in    52 steps ***


  Electronic density on regular grids:       -768.0000000000        0.0000000000
  Core density on regular grids:              767.9999999993       -0.0000000007
  Total charge density on r-space grids:       -0.0000000006
  Total charge density g-space grids:          -0.0000000006

  Overlap energy of the core charge distribution:               0.00002979321573
  Self energy of the core charge distribution:              -2560.32152193892080
  Core Hamiltonian energy:                                    800.89014157092151
  Hartree energy:                                            1001.46422538949832
  Exchange-correlation energy:                               -335.14930813677495
  Dispersion energy:                                           -0.24645945717617
  Electronic entropic energy:                                  -0.00000017803992
  Fermi energy:                                                -0.10930501221687

  Total energy:                                             -1093.36289295727647

  outer SCF iter =    1 RMS gradient =   0.28E-06 energy =      -1093.3628929573
  outer SCF loop converged in   1 iterations or   52 steps


 *** WARNING in qs_loc_utils.F:1500 :: User requested the calculation of ***
 *** the localized wavefunction but the section LOCALIZE was not         ***
 *** specified. Localization will not be performed!                      ***


 -------------------------------------------------------------------------------
 -                                                                             -
 -  BSSE CALCULATION         FRAGMENT CONF: 01        FRAGMENT SUBCONF: 01     -
 -                           CHARGE =     0           MULTIPLICITY =     0     -
 -                                                                             -
 -                 ATOM INDEX                              ATOM NAME           -
 -                 ----------                              ---------           -
 -                    193                                   Na                 -
 -------------------------------------------------------------------------------

 *******************************************************************************
 *******************************************************************************
 **                                                                           **
 **     #####                         ##              ##                      **
 **    ##   ##            ##          ##              ##                      **
 **   ##     ##                       ##            ######                    **
 **   ##     ##  ##   ##  ##   #####  ##  ##   ####   ##    #####    #####    **
 **   ##     ##  ##   ##  ##  ##      ## ##   ##      ##   ##   ##  ##   ##   **
 **   ##  ## ##  ##   ##  ##  ##      ####     ###    ##   ######   ######    **
 **    ##  ###   ##   ##  ##  ##      ## ##      ##   ##   ##       ##        **
 **     #######   #####   ##   #####  ##  ##  ####    ##    #####   ##        **
 **           ##                                                    ##        **
 **                                                                           **
 **                                                ... make the atoms dance   **
 **                                                                           **
 **            Copyright (C) by CP2K developers group (2000-2022)             **
 **                      J. Chem. Phys. 152, 194103 (2020)                    **
 **                                                                           **
 *******************************************************************************

 *** WARNING in qs_environment.F:1486 :: More added MOs requested than     ***
 *** available. The full set of unoccupied MOs will be used. Use           ***
 *** 'ADDED_MOS -1' to always use all available MOs and to get rid of this ***
 *** warning.                                                              ***



 TOTAL NUMBERS AND MAXIMUM NUMBERS

  Total number of            - Atomic kinds:                                   1
                             - Atoms:                                          1
                             - Shell sets:                                     1
                             - Shells:                                         5
                             - Primitive Cartesian functions:                  7
                             - Cartesian basis functions:                      9
                             - Spherical basis functions:                      9

  Maximum angular momentum of- Orbital basis functions:                        1
                             - Local part of the GTH pseudopotential:          2
                             - Non-local part of the GTH pseudopotential:      1


 SCF PARAMETERS         Density guess:                                    ATOMIC
                        --------------------------------------------------------
                        max_scf:                                             300
                        max_scf_history:                                       0
                        max_diis:                                              4
                        --------------------------------------------------------
                        eps_scf:                                        3.00E-07
                        eps_scf_history:                                0.00E+00
                        eps_diis:                                       1.00E-01
                        eps_eigval:                                     1.00E-05
                        --------------------------------------------------------
                        level_shift [a.u.]:                             0.000000
                        added MOs                                         4    0
                        --------------------------------------------------------
                        Mixing method:                            BROYDEN_MIXING
                                                charge density mixing in g-space
                        --------------------------------------------------------
                        Smear method:                                FERMI_DIRAC
                        Electronic temperature [K]:                        300.0
                        Electronic temperature [a.u.]:                  9.50E-04
                        Accuracy threshold:                             1.00E-10
                        --------------------------------------------------------
                        Outer loop SCF in use 
                        No variables optimised in outer loop
                        eps_scf                                         1.00E-06
                        max_scf                                              300
                        DIIS optimization
                        DIIS buffer length                                     3
                        step_size                                       5.00E-01

 Number of electrons:                                                          9
 Number of occupied orbitals:                                                  5
 Number of molecular orbitals:                                                 9

 Number of orbital functions:                                                  9
 Number of independent orbital functions:                                      9

 Extrapolation method: initial_guess


 SCF WAVEFUNCTION OPTIMIZATION

  Step     Update method      Time    Convergence         Total energy    Change
  ------------------------------------------------------------------------------
     1 NoMix/Diag. 0.10E+00    5.7     0.02075794       -47.1487955307 -4.71E+01
     2 Broy./Diag. 0.10E+00    7.2     0.00009024       -47.1093943563  3.94E-02
     3 Broy./Diag. 0.10E+00    7.6     0.00093424       -47.1476913952 -3.83E-02
     4 Broy./Diag. 0.10E+00    8.9     0.00002269       -47.1548655980 -7.17E-03
     5 Broy./Diag. 0.10E+00    8.6     0.00024813       -47.1546570640  2.09E-04
     6 Broy./Diag. 0.10E+00    7.3     0.00000978       -47.1546696835 -1.26E-05
     7 Broy./Diag. 0.10E+00    7.8     0.00015478       -47.1527805142  1.89E-03
     8 Broy./Diag. 0.10E+00    8.5     0.00001901       -47.1517419551  1.04E-03
     9 Broy./Diag. 0.10E+00    8.0     0.00019446       -47.1511763427  5.66E-04
    10 Broy./Diag. 0.10E+00    9.0     0.00000940       -47.1508259948  3.50E-04
    11 Broy./Diag. 0.10E+00    6.4     0.00009297       -47.1506590142  1.67E-04
    12 Broy./Diag. 0.10E+00    7.8     0.00000124       -47.1506292458  2.98E-05
    13 Broy./Diag. 0.10E+00    8.5     0.00000553       -47.1507509394 -1.22E-04
    14 Broy./Diag. 0.10E+00    8.0     0.00000077       -47.1507725014 -2.16E-05
    15 Broy./Diag. 0.10E+00    8.6     0.00001150       -47.1505928339  1.80E-04
    16 Broy./Diag. 0.10E+00    7.8     0.00000226       -47.1505706030  2.22E-05
    17 Broy./Diag. 0.10E+00    8.6     0.00000240       -47.1506228233 -5.22E-05
    18 Broy./Diag. 0.10E+00    6.6     0.00000199       -47.1506671059 -4.43E-05
    19 Broy./Diag. 0.10E+00    7.3     0.00000203       -47.1506831069 -1.60E-05
    20 Broy./Diag. 0.10E+00    8.7     0.00000193       -47.1506740907  9.02E-06
    21 Broy./Diag. 0.10E+00    7.9     0.00000225       -47.1506544660  1.96E-05
    22 Broy./Diag. 0.10E+00    7.4     0.00000239       -47.1506353788  1.91E-05
    23 Broy./Diag. 0.10E+00    8.9     0.00000377       -47.1506152480  2.01E-05
    24 Broy./Diag. 0.10E+00    5.3     0.00000073       -47.1506140072  1.24E-06
    25 Broy./Diag. 0.10E+00    9.0     0.00000034       -47.1506254733 -1.15E-05
    26 Broy./Diag. 0.10E+00    9.3     0.00000022       -47.1506198806  5.59E-06

  *** SCF run converged in    26 steps ***


  Electronic density on regular grids:         -8.9997299541        0.0002700459
  Core density on regular grids:                9.0000000000       -0.0000000000
  Total charge density on r-space grids:        0.0002700459
  Total charge density g-space grids:           0.0002700459

  Overlap energy of the core charge distribution:               0.00000000000000
  Self energy of the core charge distribution:                -96.60649019442629
  Core Hamiltonian energy:                                     29.75878862521137
  Hartree energy:                                              26.74555683078439
  Exchange-correlation energy:                                 -7.04714950404504
  Dispersion energy:                                           -0.00000859667287
  Electronic entropic energy:                                  -0.00131704147593
  Fermi energy:                                                -0.09163330953575

  Total energy:                                               -47.15061988062436

  outer SCF iter =    1 RMS gradient =   0.22E-06 energy =        -47.1506198806
  outer SCF loop converged in   1 iterations or   26 steps


 *** WARNING in qs_loc_utils.F:1500 :: User requested the calculation of ***
 *** the localized wavefunction but the section LOCALIZE was not         ***
 *** specified. Localization will not be performed!                      ***


 -------------------------------------------------------------------------------
 -                                                                             -
 -  BSSE CALCULATION         FRAGMENT CONF: 11        FRAGMENT SUBCONF: 10     -
 -                           CHARGE =     0           MULTIPLICITY =     0     -
 -                                                                             -
 -                 ATOM INDEX                              ATOM NAME           -
 -                 ----------                              ---------           -
 -                      1                                   C                  -
 -                      2                                   C                  -
 -                      3                                   C                  -
 -                      4                                   C                  -
 -                      5                                   C                  -
 -                      6                                   C                  -
 -                      7                                   C                  -
 -                      8                                   C                  -
 -                      9                                   C                  -
 -                     10                                   C                  -
 -                     11                                   C                  -
 -                     12                                   C                  -
 -                     13                                   C                  -
 -                     14                                   C                  -
 -                     15                                   C                  -
 -                     16                                   C                  -
 -                     17                                   C                  -
 -                     18                                   C                  -
 -                     19                                   C                  -
 -                     20                                   C                  -
 -                     21                                   C                  -
 -                     22                                   C                  -
 -                     23                                   C                  -
 -                     24                                   C                  -
 -                     25                                   C                  -
 -                     26                                   C                  -
 -                     27                                   C                  -
 -                     28                                   C                  -
 -                     29                                   C                  -
 -                     30                                   C                  -
 -                     31                                   C                  -
 -                     32                                   C                  -
 -                     33                                   C                  -
 -                     34                                   C                  -
 -                     35                                   C                  -
 -                     36                                   C                  -
 -                     37                                   C                  -
 -                     38                                   C                  -
 -                     39                                   C                  -
 -                     40                                   C                  -
 -                     41                                   C                  -
 -                     42                                   C                  -
 -                     43                                   C                  -
 -                     44                                   C                  -
 -                     45                                   C                  -
 -                     46                                   C                  -
 -                     47                                   C                  -
 -                     48                                   C                  -
 -                     49                                   C                  -
 -                     50                                   C                  -
 -                     51                                   C                  -
 -                     52                                   C                  -
 -                     53                                   C                  -
 -                     54                                   C                  -
 -                     55                                   C                  -
 -                     56                                   C                  -
 -                     57                                   C                  -
 -                     58                                   C                  -
 -                     59                                   C                  -
 -                     60                                   C                  -
 -                     61                                   C                  -
 -                     62                                   C                  -
 -                     63                                   C                  -
 -                     64                                   C                  -
 -                     65                                   C                  -
 -                     66                                   C                  -
 -                     67                                   C                  -
 -                     68                                   C                  -
 -                     69                                   C                  -
 -                     70                                   C                  -
 -                     71                                   C                  -
 -                     72                                   C                  -
 -                     73                                   C                  -
 -                     74                                   C                  -
 -                     75                                   C                  -
 -                     76                                   C                  -
 -                     77                                   C                  -
 -                     78                                   C                  -
 -                     79                                   C                  -
 -                     80                                   C                  -
 -                     81                                   C                  -
 -                     82                                   C                  -
 -                     83                                   C                  -
 -                     84                                   C                  -
 -                     85                                   C                  -
 -                     86                                   C                  -
 -                     87                                   C                  -
 -                     88                                   C                  -
 -                     89                                   C                  -
 -                     90                                   C                  -
 -                     91                                   C                  -
 -                     92                                   C                  -
 -                     93                                   C                  -
 -                     94                                   C                  -
 -                     95                                   C                  -
 -                     96                                   C                  -
 -                     97                                   C                  -
 -                     98                                   C                  -
 -                     99                                   C                  -
 -                    100                                   C                  -
 -                    101                                   C                  -
 -                    102                                   C                  -
 -                    103                                   C                  -
 -                    104                                   C                  -
 -                    105                                   C                  -
 -                    106                                   C                  -
 -                    107                                   C                  -
 -                    108                                   C                  -
 -                    109                                   C                  -
 -                    110                                   C                  -
 -                    111                                   C                  -
 -                    112                                   C                  -
 -                    113                                   C                  -
 -                    114                                   C                  -
 -                    115                                   C                  -
 -                    116                                   C                  -
 -                    117                                   C                  -
 -                    118                                   C                  -
 -                    119                                   C                  -
 -                    120                                   C                  -
 -                    121                                   C                  -
 -                    122                                   C                  -
 -                    123                                   C                  -
 -                    124                                   C                  -
 -                    125                                   C                  -
 -                    126                                   C                  -
 -                    127                                   C                  -
 -                    128                                   C                  -
 -                    129                                   C                  -
 -                    130                                   C                  -
 -                    131                                   C                  -
 -                    132                                   C                  -
 -                    133                                   C                  -
 -                    134                                   C                  -
 -                    135                                   C                  -
 -                    136                                   C                  -
 -                    137                                   C                  -
 -                    138                                   C                  -
 -                    139                                   C                  -
 -                    140                                   C                  -
 -                    141                                   C                  -
 -                    142                                   C                  -
 -                    143                                   C                  -
 -                    144                                   C                  -
 -                    145                                   C                  -
 -                    146                                   C                  -
 -                    147                                   C                  -
 -                    148                                   C                  -
 -                    149                                   C                  -
 -                    150                                   C                  -
 -                    151                                   C                  -
 -                    152                                   C                  -
 -                    153                                   C                  -
 -                    154                                   C                  -
 -                    155                                   C                  -
 -                    156                                   C                  -
 -                    157                                   C                  -
 -                    158                                   C                  -
 -                    159                                   C                  -
 -                    160                                   C                  -
 -                    161                                   C                  -
 -                    162                                   C                  -
 -                    163                                   C                  -
 -                    164                                   C                  -
 -                    165                                   C                  -
 -                    166                                   C                  -
 -                    167                                   C                  -
 -                    168                                   C                  -
 -                    169                                   C                  -
 -                    170                                   C                  -
 -                    171                                   C                  -
 -                    172                                   C                  -
 -                    173                                   C                  -
 -                    174                                   C                  -
 -                    175                                   C                  -
 -                    176                                   C                  -
 -                    177                                   C                  -
 -                    178                                   C                  -
 -                    179                                   C                  -
 -                    180                                   C                  -
 -                    181                                   C                  -
 -                    182                                   C                  -
 -                    183                                   C                  -
 -                    184                                   C                  -
 -                    185                                   C                  -
 -                    186                                   C                  -
 -                    187                                   C                  -
 -                    188                                   C                  -
 -                    189                                   C                  -
 -                    190                                   C                  -
 -                    191                                   C                  -
 -                    192                                   C                  -
 -                    193                                   Na_ghost           -
 -------------------------------------------------------------------------------

 *******************************************************************************
 *******************************************************************************
 **                                                                           **
 **     #####                         ##              ##                      **
 **    ##   ##            ##          ##              ##                      **
 **   ##     ##                       ##            ######                    **
 **   ##     ##  ##   ##  ##   #####  ##  ##   ####   ##    #####    #####    **
 **   ##     ##  ##   ##  ##  ##      ## ##   ##      ##   ##   ##  ##   ##   **
 **   ##  ## ##  ##   ##  ##  ##      ####     ###    ##   ######   ######    **
 **    ##  ###   ##   ##  ##  ##      ## ##      ##   ##   ##       ##        **
 **     #######   #####   ##   #####  ##  ##  ####    ##    #####   ##        **
 **           ##                                                    ##        **
 **                                                                           **
 **                                                ... make the atoms dance   **
 **                                                                           **
 **            Copyright (C) by CP2K developers group (2000-2022)             **
 **                      J. Chem. Phys. 152, 194103 (2020)                    **
 **                                                                           **
 *******************************************************************************


 TOTAL NUMBERS AND MAXIMUM NUMBERS

  Total number of            - Atomic kinds:                                   2
                             - Atoms:                                        193
                             - Shell sets:                                   193
                             - Shells:                                       965
                             - Primitive Cartesian functions:                967
                             - Cartesian basis functions:                   2697
                             - Spherical basis functions:                   2505

  Maximum angular momentum of- Orbital basis functions:                        2
                             - Local part of the GTH pseudopotential:          2
                             - Non-local part of the GTH pseudopotential:      0


 SCF PARAMETERS         Density guess:                                    ATOMIC
                        --------------------------------------------------------
                        max_scf:                                             300
                        max_scf_history:                                       0
                        max_diis:                                              4
                        --------------------------------------------------------
                        eps_scf:                                        3.00E-07
                        eps_scf_history:                                0.00E+00
                        eps_diis:                                       1.00E-01
                        eps_eigval:                                     1.00E-05
                        --------------------------------------------------------
                        level_shift [a.u.]:                             0.000000
                        added MOs                                       100    0
                        --------------------------------------------------------
                        Mixing method:                            BROYDEN_MIXING
                                                charge density mixing in g-space
                        --------------------------------------------------------
                        Smear method:                                FERMI_DIRAC
                        Electronic temperature [K]:                        300.0
                        Electronic temperature [a.u.]:                  9.50E-04
                        Accuracy threshold:                             1.00E-10
                        --------------------------------------------------------
                        Outer loop SCF in use 
                        No variables optimised in outer loop
                        eps_scf                                         1.00E-06
                        max_scf                                              300
                        DIIS optimization
                        DIIS buffer length                                     3
                        step_size                                       5.00E-01

 Number of electrons:                                                        768
 Number of occupied orbitals:                                                384
 Number of molecular orbitals:                                               484

 Number of orbital functions:                                               2505
 Number of independent orbital functions:                                   2505

 Extrapolation method: initial_guess


 SCF WAVEFUNCTION OPTIMIZATION

  Step     Update method      Time    Convergence         Total energy    Change
  ------------------------------------------------------------------------------
     1 NoMix/Diag. 0.10E+00  123.3     0.92583829     -1085.8647380644 -1.09E+03
     2 Broy./Diag. 0.10E+00  158.3     0.00230730     -1044.4820617163  4.14E+01
     3 Broy./Diag. 0.10E+00  112.5     0.02567063     -1076.5151888926 -3.20E+01
     4 Broy./Diag. 0.10E+00  154.1     0.00041705     -1090.1639099050 -1.36E+01
     5 Broy./Diag. 0.10E+00  129.4     0.00324010     -1090.7478190883 -5.84E-01
     6 Broy./Diag. 0.10E+00  152.9     0.00014927     -1091.9213761233 -1.17E+00
     7 Broy./Diag. 0.10E+00  146.9     0.00151984     -1092.4402653096 -5.19E-01
     8 Broy./Diag. 0.10E+00  153.1     0.00008417     -1092.8042628745 -3.64E-01
     9 Broy./Diag. 0.10E+00  163.5     0.00142143     -1092.9715648291 -1.67E-01
    10 Broy./Diag. 0.10E+00  148.0     0.00011371     -1093.1775759522 -2.06E-01
    11 Broy./Diag. 0.10E+00  147.2     0.00123966     -1093.1784619276 -8.86E-04
    12 Broy./Diag. 0.10E+00  153.0     0.00005758     -1093.2454070069 -6.69E-02
    13 Broy./Diag. 0.10E+00  146.5     0.00051650     -1093.2325711339  1.28E-02
    14 Broy./Diag. 0.10E+00  161.5     0.00004072     -1093.2795639312 -4.70E-02
    15 Broy./Diag. 0.10E+00  150.5     0.00025824     -1093.3330295054 -5.35E-02
    16 Broy./Diag. 0.10E+00  144.8     0.00002852     -1093.3587982565 -2.58E-02
    17 Broy./Diag. 0.10E+00  132.2     0.00009221     -1093.3465574115  1.22E-02
    18 Broy./Diag. 0.10E+00  131.9     0.00003722     -1093.3360676244  1.05E-02
    19 Broy./Diag. 0.10E+00  143.5     0.00002356     -1093.3332005934  2.87E-03
    20 Broy./Diag. 0.10E+00  144.5     0.00002904     -1093.3325686632  6.32E-04
    21 Broy./Diag. 0.10E+00  167.0     0.00002798     -1093.3333708409 -8.02E-04
    22 Broy./Diag. 0.10E+00  140.0     0.00004155     -1093.3367589194 -3.39E-03
    23 Broy./Diag. 0.10E+00  140.0     0.00004344     -1093.3402772268 -3.52E-03
    24 Broy./Diag. 0.10E+00  141.2     0.00002851     -1093.3411914626 -9.14E-04
    25 Broy./Diag. 0.10E+00  168.2     0.00002481     -1093.3374842436  3.71E-03
    26 Broy./Diag. 0.10E+00  151.5     0.00000799     -1093.3376010416 -1.17E-04
    27 Broy./Diag. 0.10E+00  159.7     0.00005295     -1093.3431139088 -5.51E-03
    28 Broy./Diag. 0.10E+00  147.7     0.00000975     -1093.3513733458 -8.26E-03
    29 Broy./Diag. 0.10E+00  136.3     0.00002783     -1093.3572189493 -5.85E-03
    30 Broy./Diag. 0.10E+00  149.4     0.00000729     -1093.3614012935 -4.18E-03
    31 Broy./Diag. 0.10E+00  153.3     0.00002039     -1093.3616959549 -2.95E-04
    32 Broy./Diag. 0.10E+00  153.6     0.00001292     -1093.3622162932 -5.20E-04
    33 Broy./Diag. 0.10E+00  175.7     0.00000634     -1093.3617344084  4.82E-04
    34 Broy./Diag. 0.10E+00  152.7     0.00002395     -1093.3619514538 -2.17E-04
    35 Broy./Diag. 0.10E+00  166.7     0.00000671     -1093.3633674943 -1.42E-03
    36 Broy./Diag. 0.10E+00  170.5     0.00001223     -1093.3642889917 -9.21E-04
    37 Broy./Diag. 0.10E+00  150.4     0.00000547     -1093.3639754432  3.14E-04
    38 Broy./Diag. 0.10E+00  151.4     0.00000344     -1093.3631851611  7.90E-04
    39 Broy./Diag. 0.10E+00  140.0     0.00000423     -1093.3625511072  6.34E-04
    40 Broy./Diag. 0.10E+00  136.1     0.00000106     -1093.3624662087  8.49E-05
    41 Broy./Diag. 0.10E+00  158.9     0.00000378     -1093.3627875481 -3.21E-04
    42 Broy./Diag. 0.10E+00  144.5     0.00000220     -1093.3631505485 -3.63E-04
    43 Broy./Diag. 0.10E+00  131.8     0.00000383     -1093.3635409307 -3.90E-04
    44 Broy./Diag. 0.10E+00  169.1     0.00000334     -1093.3636997419 -1.59E-04
    45 Broy./Diag. 0.10E+00  154.0     0.00000131     -1093.3636211589  7.86E-05
    46 Broy./Diag. 0.10E+00  152.2     0.00000309     -1093.3633993111  2.22E-04
    47 Broy./Diag. 0.10E+00  140.1     0.00000119     -1093.3635031851 -1.04E-04
    48 Broy./Diag. 0.10E+00  147.7     0.00000255     -1093.3637385899 -2.35E-04
    49 Broy./Diag. 0.10E+00  144.2     0.00000121     -1093.3639572758 -2.19E-04
    50 Broy./Diag. 0.10E+00  154.0     0.00000094     -1093.3639990895 -4.18E-05
    51 Broy./Diag. 0.10E+00  146.0     0.00000127     -1093.3639541935  4.49E-05
    52 Broy./Diag. 0.10E+00  151.7     0.00000023     -1093.3639342363  2.00E-05

  *** SCF run converged in    52 steps ***


  Electronic density on regular grids:       -768.0000000017       -0.0000000017
  Core density on regular grids:              767.9999999993       -0.0000000007
  Total charge density on r-space grids:       -0.0000000024
  Total charge density g-space grids:          -0.0000000024

  Overlap energy of the core charge distribution:               0.00002979321573
  Self energy of the core charge distribution:              -2560.32152193892080
  Core Hamiltonian energy:                                    800.88923258806949
  Hartree energy:                                            1001.46667551251358
  Exchange-correlation energy:                               -335.15189055608232
  Dispersion energy:                                           -0.24645945717617
  Electronic entropic energy:                                  -0.00000017795911
  Fermi energy:                                                -0.10927899930937

  Total energy:                                             -1093.36393423633967

  outer SCF iter =    1 RMS gradient =   0.23E-06 energy =      -1093.3639342363
  outer SCF loop converged in   1 iterations or   52 steps


 *** WARNING in qs_loc_utils.F:1500 :: User requested the calculation of ***
 *** the localized wavefunction but the section LOCALIZE was not         ***
 *** specified. Localization will not be performed!                      ***


 -------------------------------------------------------------------------------
 -                                                                             -
 -  BSSE CALCULATION         FRAGMENT CONF: 11        FRAGMENT SUBCONF: 01     -
 -                           CHARGE =     0           MULTIPLICITY =     0     -
 -                                                                             -
 -                 ATOM INDEX                              ATOM NAME           -
 -                 ----------                              ---------           -
 -                      1                                   C_ghost            -
 -                      2                                   C_ghost            -
 -                      3                                   C_ghost            -
 -                      4                                   C_ghost            -
 -                      5                                   C_ghost            -
 -                      6                                   C_ghost            -
 -                      7                                   C_ghost            -
 -                      8                                   C_ghost            -
 -                      9                                   C_ghost            -
 -                     10                                   C_ghost            -
 -                     11                                   C_ghost            -
 -                     12                                   C_ghost            -
 -                     13                                   C_ghost            -
 -                     14                                   C_ghost            -
 -                     15                                   C_ghost            -
 -                     16                                   C_ghost            -
 -                     17                                   C_ghost            -
 -                     18                                   C_ghost            -
 -                     19                                   C_ghost            -
 -                     20                                   C_ghost            -
 -                     21                                   C_ghost            -
 -                     22                                   C_ghost            -
 -                     23                                   C_ghost            -
 -                     24                                   C_ghost            -
 -                     25                                   C_ghost            -
 -                     26                                   C_ghost            -
 -                     27                                   C_ghost            -
 -                     28                                   C_ghost            -
 -                     29                                   C_ghost            -
 -                     30                                   C_ghost            -
 -                     31                                   C_ghost            -
 -                     32                                   C_ghost            -
 -                     33                                   C_ghost            -
 -                     34                                   C_ghost            -
 -                     35                                   C_ghost            -
 -                     36                                   C_ghost            -
 -                     37                                   C_ghost            -
 -                     38                                   C_ghost            -
 -                     39                                   C_ghost            -
 -                     40                                   C_ghost            -
 -                     41                                   C_ghost            -
 -                     42                                   C_ghost            -
 -                     43                                   C_ghost            -
 -                     44                                   C_ghost            -
 -                     45                                   C_ghost            -
 -                     46                                   C_ghost            -
 -                     47                                   C_ghost            -
 -                     48                                   C_ghost            -
 -                     49                                   C_ghost            -
 -                     50                                   C_ghost            -
 -                     51                                   C_ghost            -
 -                     52                                   C_ghost            -
 -                     53                                   C_ghost            -
 -                     54                                   C_ghost            -
 -                     55                                   C_ghost            -
 -                     56                                   C_ghost            -
 -                     57                                   C_ghost            -
 -                     58                                   C_ghost            -
 -                     59                                   C_ghost            -
 -                     60                                   C_ghost            -
 -                     61                                   C_ghost            -
[...]
    29 Broy./Diag. 0.10E+00    7.9     0.00154359     -1140.5575718846 -3.88E-03
    30 Broy./Diag. 0.10E+00    7.9     0.00134274     -1140.5614185271 -3.85E-03
    31 Broy./Diag. 0.10E+00    8.0     0.00121183     -1140.5606429699  7.76E-04
    32 Broy./Diag. 0.10E+00    8.0     0.00057653     -1140.5576958541  2.95E-03
    33 Broy./Diag. 0.10E+00    8.1     0.00002904     -1140.5553780942  2.32E-03
    34 Broy./Diag. 0.10E+00    8.0     0.00051960     -1140.5550470011  3.31E-04
    35 Broy./Diag. 0.10E+00    8.0     0.00043871     -1140.5547804847  2.67E-04
    36 Broy./Diag. 0.10E+00    8.1     0.00008090     -1140.5555700202 -7.90E-04
    37 Broy./Diag. 0.10E+00    8.0     0.00007121     -1140.5559024837 -3.32E-04
    38 Broy./Diag. 0.10E+00    9.1     0.00003197     -1140.5564408303 -5.38E-04
    39 Broy./Diag. 0.10E+00    9.2     0.00011618     -1140.5565922557 -1.51E-04
    40 Broy./Diag. 0.10E+00    8.1     0.00013660     -1140.5566442809 -5.20E-05
    41 Broy./Diag. 0.10E+00    8.0     0.00015191     -1140.5565792996  6.50E-05
    42 Broy./Diag. 0.10E+00    8.0     0.00011401     -1140.5566502279 -7.09E-05
    43 Broy./Diag. 0.10E+00    8.0     0.00008525     -1140.5568688855 -2.19E-04
    44 Broy./Diag. 0.10E+00    8.1     0.00009950     -1140.5569487975 -7.99E-05
    45 Broy./Diag. 0.10E+00    8.1     0.00003968     -1140.5567851407  1.64E-04
    46 Broy./Diag. 0.10E+00    8.1     0.00002316     -1140.5567934832 -8.34E-06
    47 Broy./Diag. 0.10E+00    8.1     0.00000217     -1140.5567071586  8.63E-05
    48 Broy./Diag. 0.10E+00    8.1     0.00001343     -1140.5566303357  7.68E-05
    49 Broy./Diag. 0.10E+00    8.1     0.00000144     -1140.5566068518  2.35E-05
    50 Broy./Diag. 0.10E+00    8.1     0.00001141     -1140.5565906423  1.62E-05
    51 Broy./Diag. 0.10E+00    8.1     0.00000712     -1140.5565979380 -7.30E-06
    52 Broy./Diag. 0.10E+00    8.1     0.00000679     -1140.5566175188 -1.96E-05
    53 Broy./Diag. 0.10E+00    8.1     0.00000380     -1140.5566133541  4.16E-06
    54 Broy./Diag. 0.10E+00    8.1     0.00000150     -1140.5566111177  2.24E-06
    55 Broy./Diag. 0.10E+00    8.1     0.00000034     -1140.5566124481 -1.33E-06
    56 Broy./Diag. 0.10E+00    8.8     0.00000032     -1140.5566111764  1.27E-06
    57 Broy./Diag. 0.10E+00   11.5     0.00000014     -1140.5566079334  3.24E-06

  *** SCF run converged in    57 steps ***


  Electronic density on regular grids:       -776.9997288682        0.0002711318
  Core density on regular grids:              776.9999999993       -0.0000000007
  Total charge density on r-space grids:        0.0002711311
  Total charge density g-space grids:           0.0002711311

  Overlap energy of the core charge distribution:               0.00002979321573
  Self energy of the core charge distribution:              -2656.92801213334678
  Core Hamiltonian energy:                                    830.97989843267123
  Hartree energy:                                            1028.07109042724414
  Exchange-correlation energy:                               -342.42003027732153
  Dispersion energy:                                           -0.25715914927167
  Electronic entropic energy:                                  -0.00242502673964
  Fermi energy:                                                -0.09323913499053

  Total energy:                                             -1140.55660793337029

  outer SCF iter =    1 RMS gradient =   0.14E-06 energy =      -1140.5566079334
  outer SCF loop converged in   1 iterations or   57 steps


 *** WARNING in qs_loc_utils.F:1500 :: User requested the calculation of ***
 *** the localized wavefunction but the section LOCALIZE was not         ***
 *** specified. Localization will not be performed!                      ***


 -------------------------------------------------------------------------------
 -                                                                             -
 -                                 BSSE RESULTS                                -
 -                                                                             -
 -                 CP-corrected Total energy:    -1140.554893                  -
 -                                                                             -
 -                       1-body contribution:    -1093.362893                  -
 -                       1-body contribution:      -47.150620                  -
 -                                                                             -
 -                       2-body contribution:       -0.041381                  -
 -                 BSSE-free interaction energy:       -0.041381               -
 -------------------------------------------------------------------------------

 -------------------------------------------------------------------------------
 -                                                                             -
 -                                DBCSR STATISTICS                             -
 -                                                                             -
 -------------------------------------------------------------------------------
 COUNTER                                    TOTAL       BLAS       SMM       ACC
 flops     9 x     9 x     9                96228     100.0%      0.0%      0.0%
 flops     9 x     9 x    32               622080     100.0%      0.0%      0.0%
 flops     9 x     9 x   100               842400     100.0%      0.0%      0.0%
 flops     9 x     9 x   105               969570     100.0%      0.0%      0.0%
 flops     9 x    13 x     9              6739200     100.0%      0.0%      0.0%
 flops     9 x     9 x   128              6780672     100.0%      0.0%      0.0%
 flops    13 x     9 x     9              6907680     100.0%      0.0%      0.0%
 flops     9 x    13 x    32             71884800     100.0%      0.0%      0.0%
 flops    13 x     9 x    32             73681920     100.0%      0.0%      0.0%
 flops     9 x    13 x   100             97344000     100.0%      0.0%      0.0%
 flops    13 x     9 x   100             99777600     100.0%      0.0%      0.0%
 flops     9 x    13 x   105            112039200     100.0%      0.0%      0.0%
 flops    13 x     9 x   105            114840180     100.0%      0.0%      0.0%
 flops     9 x    13 x   128            783544320     100.0%      0.0%      0.0%
 flops    13 x     9 x   128            803132928     100.0%      0.0%      0.0%
 flops    13 x    13 x     9           1397494800     100.0%      0.0%      0.0%
 flops    13 x    13 x    32          14906611200     100.0%      0.0%      0.0%
 flops    13 x    13 x   105          23233351050     100.0%      0.0%      0.0%
 flops    13 x    13 x   100          40372072000     100.0%      0.0%      0.0%
 flops    13 x    13 x   128         239996440320     100.0%      0.0%      0.0%
 flops inhomo. stacks                           0       0.0%      0.0%      0.0%
 flops total                       322.085172E+09     100.0%      0.0%      0.0%
 flops max/rank                     21.087057E+09     100.0%      0.0%      0.0%
 matmuls inhomo. stacks                         0       0.0%      0.0%      0.0%
 matmuls total                            9331114     100.0%      0.0%      0.0%
 number of processed stacks                 17658     100.0%      0.0%      0.0%
 average stack size                                   528.4       0.0       0.0
 marketing flops                   788.147143E+09
 -------------------------------------------------------------------------------
 # multiplications                            227
 max memory usage/rank             887.648256E+06
 # max total images/rank                        1
 # max 3D layers                                1
 # MPI messages exchanged                   21792
 MPI messages size (bytes):
  total size                         9.898082E+09
  min size                           0.000000E+00
  max size                         648.192000E+03
  average size                     454.207156E+03
 MPI breakdown and total messages size (bytes):
             size <=      128                2340                        0
       128 < size <=     8192                 156                   101088
      8192 < size <=    32768                   0                        0
     32768 < size <=   131072                 960                 43286400
    131072 < size <=  4194304               18336               9854699184
   4194304 < size <= 16777216                   0                        0
  16777216 < size                               0                        0
 -------------------------------------------------------------------------------
 -                                                                             -
 -                      DBCSR MESSAGE PASSING PERFORMANCE                      -
 -                                                                             -
 -------------------------------------------------------------------------------
 ROUTINE             CALLS      AVE VOLUME [Bytes]
 MP_Bcast               21                     12.
 MP_Allreduce         1653                      9.
 MP_Alltoall          6416                 486154.
 MP_ISend             3632                 183300.
 MP_IRecv             3632                 169007.
 -------------------------------------------------------------------------------

 -------------------------------------------------------------------------------
 -                                                                             -
 -                                DBM STATISTICS                               -
 -                                                                             -
 -------------------------------------------------------------------------------
    M  x    N  x    K                                          COUNT     PERCENT
 -------------------------------------------------------------------------------

 -------------------------------------------------------------------------------
 -                                                                             -
 -                                GRID STATISTICS                              -
 -                                                                             -
 -------------------------------------------------------------------------------
 LP    KERNEL             BACKEND                              COUNT     PERCENT
 4     collocate ortho    REF                               23632605      49.91%
 4     integrate ortho    REF                               23171481      48.93%
 3     collocate ortho    REF                                 264328       0.56%
 3     integrate ortho    REF                                 259111       0.55%
 0     collocate general  REF                                   9264       0.02%
 2     collocate ortho    REF                                   9129       0.02%
 2     integrate ortho    REF                                   8925       0.02%
 -------------------------------------------------------------------------------

 MEMORY| Estimated peak process memory [MiB]                                 847

 -------------------------------------------------------------------------------
 -                                                                             -
 -                         MESSAGE PASSING PERFORMANCE                         -
 -                                                                             -
 -------------------------------------------------------------------------------

 ROUTINE             CALLS      AVE VOLUME [Bytes]
 MP_Group               24
 MP_Bcast              607                1591650.
 MP_Allreduce         3174                   1529.
 MP_Sync               277
 MP_Alltoall          3051               23491535.
 MP_SendRecv          9684                 213415.
 MP_ISendRecv         6810                 161680.
 MP_Wait             16963
 MP_comm_split          26
 MP_ISend             7384                1392699.
 MP_IRecv             7384                1392679.
 MP_Recv               145                 618734.
 -------------------------------------------------------------------------------


 -------------------------------------------------------------------------------
 -                                                                             -
 -                           R E F E R E N C E S                               -
 -                                                                             -
 -------------------------------------------------------------------------------
 
 CP2K version 2023.1, the CP2K developers group (2023).
 CP2K is freely available from https://www.cp2k.org/ .

 Kuehne,Thomas D.; Iannuzzi,Marcella; Del Ben,Mauro;
 Rybkin,Vladimir V.; Seewald,Patrick; Stein,Frederick; Laino,Teodoro;
 Khaliullin,Rustam Z.; Schuett,Ole; Schiffmann,Florian; Golze,Dorothea;
 Wilhelm,Jan; Chulkov,Sergey; Bani-Hashemian,Mohammad Hossein;
 Weber,Valery; Borstnik,Urban; Taillefumier,Mathieu;
 Jakobovits,Alice Shoshana; Lazzaro,Alfio; Pabst,Hans; Mueller,Tiziano;
 Schade,Robert; Guidon,Manuel; Andermatt,Samuel; Holmberg,Nico;
 Schenter,Gregory K.; Hehn,Anna; Bussy,Augustin; Belleflamme,Fabian;
 Tabacchi,Gloria; Gloess,Andreas; Lass,Michael; Bethune,Iain;
 Mundy,Christopher J.; Plessl,Christian; Watkins,Matt;
 VandeVondele,Joost; Krack,Matthias; Hutter,Juerg. 
 The Journal of Chemical Physics, 152 (19), (2020). 
 CP2K: An electronic structure and molecular dynamics software package -
 Quickstep: Efficient and accurate electronic structure calculations.
 https://doi.org/10.1063/5.0007045

 Goerigk, Lars; Hansen, Andreas; Bauer, Christoph; Ehrlich, Stephan;
 Najibi, Asim; Grimme, Stefan. , 19 (48), (2017). 
 A look at the density functional theory zoo with the advanced GMTKN55 database
 for general main group thermochemistry, kinetics and noncovalent interactions.
 https://doi.org/10.1039/C7CP04913G

 Schuett, Ole; Messmer, Peter; Hutter, Juerg; VandeVondele, Joost. 
 Electronic Structure Calculations on Graphics Processing Units, John
 Wiley & Sons, Ltd, 173-190 (2016). 
 GPU-Accelerated Sparse Matrix-Matrix Multiplication for
 Linear Scaling Density Functional Theory.
 https://doi.org/10.1002/9781118670712.ch8

 Borstnik, U; VandeVondele, J; Weber, V; Hutter, J. 
 PARALLEL COMPUTING, 40 (5-6), 47-58 (2014). 
 Sparse matrix multiplication: The distributed block-compressed sparse
 row library.
 https://doi.org/10.1016/j.parco.2014.03.012

 Hutter, J; Iannuzzi, M; Schiffmann, F; VandeVondele, J. 
 WIREs Comput Mol Sci., 4 (1), 15-25 (2014). 
 CP2K: atomistic simulations of condensed matter systems.
 https://doi.org/10.1002/wcms.1159

 Marek, A; Blum, V; Johanni, R; Havu, V; Lang, B; Auckenthaler, T;
 Heinecke, A; Bungartz, H; Lederer, H. 
 Journal of Physics: Condensed Matter, 26 (21), (2014). 
 The ELPA library: scalable parallel eigenvalue solutions for
 electronic structure
 theory and computational science.
 https://doi.org/10.1088/0953-8984/26/21/213201

 Grimme, S; Ehrlich, S; Goerigk, L. 
 JOURNAL OF COMPUTATIONAL CHEMISTRY, 32, 1456 (2011). 
 Effect of the damping function in dispersion corrected density functional theory.
 https://doi.org/10.1002/jcc.21759

 Grimme, S; Antony, J; Ehrlich, S; Krieg, H. 
 JOURNAL OF CHEMICAL PHYSICS, 132 (15), 154104 (2010). 
 A consistent and accurate ab initio parametrization of density
 functional dispersion correction (DFT-D) for the 94 elements H-Pu.
 https://doi.org/10.1063/1.3382344

 VandeVondele, J; Hutter, J. 
 JOURNAL OF CHEMICAL PHYSICS, 127 (11), 114105 (2007). 
 Gaussian basis sets for accurate calculations on molecular systems in
 gas and condensed phases.
 https://doi.org/10.1063/1.2770708

 Krack, M. 
 THEORETICAL CHEMISTRY ACCOUNTS, 114 (1-3), 145-152 (2005). 
 Pseudopotentials for H to Kr optimized for gradient-corrected
 exchange-correlation functionals.
 https://doi.org/10.1007/s00214-005-0655-y

 VandeVondele, J; Krack, M; Mohamed, F; Parrinello, M; Chassaing, T;
 Hutter, J. COMPUTER PHYSICS COMMUNICATIONS, 167 (2), 103-128 (2005). 
 QUICKSTEP: Fast and accurate density functional calculations using a
 mixed Gaussian and plane waves approach.
 https://doi.org/10.1016/j.cpc.2004.12.014

 Frigo, M; Johnson, SG. 
 PROCEEDINGS OF THE IEEE, 93 (2), 216-231 (2005). 
 The design and implementation of FFTW3.
 https://doi.org/10.1109/JPROC.2004.840301

 Hartwigsen, C; Goedecker, S; Hutter, J. 
 PHYSICAL REVIEW B, 58 (7), 3641-3662 (1998). 
 Relativistic separable dual-space Gaussian pseudopotentials from H to Rn.
 https://doi.org/10.1103/PhysRevB.58.3641

 Lippert, G; Hutter, J; Parrinello, M. 
 MOLECULAR PHYSICS, 92 (3), 477-487 (1997). 
 A hybrid Gaussian and plane wave density functional scheme.
 https://doi.org/10.1080/002689797170220

 Perdew, JP; Burke, K; Ernzerhof, M. 
 PHYSICAL REVIEW LETTERS, 77 (18), 3865-3868 (1996). 
 Generalized gradient approximation made simple.
 https://doi.org/10.1103/PhysRevLett.77.3865

 Goedecker, S; Teter, M; Hutter, J. 
 PHYSICAL REVIEW B, 54 (3), 1703-1710 (1996). 
 Separable dual-space Gaussian pseudopotentials.
 https://doi.org/10.1103/PhysRevB.54.1703


 -------------------------------------------------------------------------------
 -                                                                             -
 -                                T I M I N G                                  -
 -                                                                             -
 -------------------------------------------------------------------------------
 SUBROUTINE                       CALLS  ASD         SELF TIME        TOTAL TIME
                                MAXIMUM       AVERAGE  MAXIMUM  AVERAGE  MAXIMUM
 CP2K                                 1  1.0     4.32     4.41 23717.16 23717.17
 qs_energies                          5  2.0     0.00     0.00 23682.13 23682.80
 scf_env_do_scf                       5  3.0     0.00     0.00 23612.60 23613.29
 scf_env_do_scf_inner_loop          227  4.0     0.01     0.05 23612.60 23613.29
 qs_scf_new_mos                     227  5.0     0.01     0.02 22028.41 22029.11
 eigensolver                        227  6.0     0.02     0.03 21735.30 21737.70
 cp_fm_diag_elpa                    201  7.0     0.00     0.00 20199.82 20203.41
 cp_fm_diag_elpa_base               201  8.0 20188.03 20190.78 20192.39 20193.14
 cp_fm_triangular_multiply          681  7.0  1479.37  1486.01  1479.37  1486.01
 qs_ks_update_qs_env                227  5.0     0.00     0.00   775.90   777.64
 rebuild_ks_matrix                  227  6.0     0.00     0.00   764.87   766.59
 qs_ks_build_kohn_sham_matrix       227  7.0     0.06     0.08   764.87   766.59
 qs_rho_update_rho_low              232  5.0     0.00     0.00   644.29   645.54
 calculate_rho_elec                 232  6.0     1.38     1.53   644.29   645.54
 rs_pw_transfer                    1841  9.5     0.05     0.10   474.92   601.61
 sum_up_and_integrate               227  8.0     1.74     1.84   557.12   558.77
 integrate_v_rspace                 227  9.0     0.01     0.03   555.38   557.04
 density_rs2pw                      232  7.0     0.02     0.05   427.59   549.97
 -------------------------------------------------------------------------------

 The number of warnings for this run is : 6
 
 -------------------------------------------------------------------------------
  **** **** ******  **  PROGRAM ENDED AT                 2025-06-15 04:54:44.000
 ***** ** ***  *** **   PROGRAM RAN ON                                sebnode133
 **    ****   ******    PROGRAM RAN BY                                    luehrs
 ***** **    ** ** **   PROGRAM PROCESS ID                               1807180
  **** **  *******  **  PROGRAM STOPPED IN /home/luehrs/PhD/Sodium_batteries/Sod
                                           ium-graphene-curvature/Sinus_surface/
                                           Sinus_9
