 DBCSR| CPU Multiplication driver                                           BLAS (U)
 DBCSR| Multrec recursion limit                                              512 (U)
 DBCSR| Multiplication stack size                                           1000 (D)
 DBCSR| Maximum elements for images                                    UNLIMITED (U)
 DBCSR| Multiplicative factor virtual images                                   1 (U)
 DBCSR| Use multiplication densification                                       T (D)
 DBCSR| Multiplication size stacks                                             3 (U)
 DBCSR| Use memory pool for CPU allocation                                     F (U)
 DBCSR| Number of 3D layers                                               SINGLE (U)
 DBCSR| Use MPI memory allocation                                              F (U)
 DBCSR| Use RMA algorithm                                                      F (U)
 DBCSR| Use Communication thread                                               T (U)
 DBCSR| Communication thread load                                             87 (D)
 DBCSR| MPI: My process id                                                     0
 DBCSR| MPI: Number of processes                                              16
 DBCSR| OMP: Current number of threads                                         1
 DBCSR| OMP: Max number of threads                                             1
 DBCSR| Split modifier for TAS multiplication algorithm                  1.0E+00 (U)


  **** **** ******  **  PROGRAM STARTED AT               2025-06-19 14:04:42.330
 ***** ** ***  *** **   PROGRAM STARTED ON                            sebnode132
 **    ****   ******    PROGRAM STARTED BY                                luehrs
 ***** **    ** ** **   PROGRAM PROCESS ID                               1830302
  **** **  *******  **  PROGRAM STARTED IN /home/luehrs/PhD/Sodium_batteries/Sod
                                           ium-graphene-curvature/Sinus_surface/
                                           Sinus_9

 CP2K| version string:                                       CP2K version 2023.1
 CP2K| source code revision number:                                  git:b888bd8
 CP2K| cp2kflags: omp libint fftw3 libxc elpa parallel scalapack spglib         
 CP2K| is freely available from                            https://www.cp2k.org/
 CP2K| Program compiled at                          Tue Jan 10 19:52:03 UTC 2023
 CP2K| Program compiled on                                            x86-ubc-01
 CP2K| Program compiled for                                Linux-x86_64-gfortran
 CP2K| Data directory path                                       /usr/share/cp2k
 CP2K| Input file name                                         input.zig-zag.inp

 GLOBAL| Force Environment number                                              1
 GLOBAL| Basis set file name                                      ./BASIS_MOLOPT
 GLOBAL| Potential file name                                    ./GTH_POTENTIALS
 GLOBAL| MM Potential file name                                     MM_POTENTIAL
 GLOBAL| Coordinate file name                             sinus9_relaxed_new.xyz
 GLOBAL| Method name                                                        CP2K
 GLOBAL| Project name                             graphene_sinus_Sodium_BSSE_new
 GLOBAL| Run type                                                           BSSE
 GLOBAL| FFT library                                                       FFTW3
 GLOBAL| Diagonalization library                                            ELPA
 GLOBAL| DGEMM library                                                      BLAS
 GLOBAL| Minimum number of eigenvectors for ELPA usage                        16
 GLOBAL| Orthonormality check for eigenvectors                          DISABLED
 GLOBAL| Matrix multiplication library                                 ScaLAPACK
 GLOBAL| All-to-all communication in single precision                          F
 GLOBAL| FFTs using library dependent lengths                                  F
 GLOBAL| Grid backend                                                       AUTO
 GLOBAL| Global print level                                                  LOW
 GLOBAL| MPI I/O enabled                                                       T
 GLOBAL| Total number of message passing processes                            16
 GLOBAL| Number of threads for this process                                    1
 GLOBAL| This output is from process                                           0
 GLOBAL| Stack size for threads created by OpenMP (OMP_STACKSIZE)        default
 GLOBAL| CPU model name                          AMD EPYC 7513 32-Core Processor

 MEMORY| system memory details [Kb]
 MEMORY|                        rank 0           min           max       average
 MEMORY| MemTotal            131828100     131828100     131828100     131828100
 MEMORY| MemFree             126270848     126270848     126270848     126270848
 MEMORY| Buffers                350400        350400        350400        350400
 MEMORY| Cached                1606976       1606976       1606976       1606976
 MEMORY| Slab                   872776        872776        872776        872776
 MEMORY| SReclaimable           224352        224352        224352        224352
 MEMORY| MemLikelyFree       128452576     128452576     128452576     128452576


 GENERATE|  Preliminary Number of Bonds generated:                             0
 GENERATE|  Achieved consistency in connectivity generation.

 *******************************************************************************
 *******************************************************************************
 **                                                                           **
 **     #####                         ##              ##                      **
 **    ##   ##            ##          ##              ##                      **
 **   ##     ##                       ##            ######                    **
 **   ##     ##  ##   ##  ##   #####  ##  ##   ####   ##    #####    #####    **
 **   ##     ##  ##   ##  ##  ##      ## ##   ##      ##   ##   ##  ##   ##   **
 **   ##  ## ##  ##   ##  ##  ##      ####     ###    ##   ######   ######    **
 **    ##  ###   ##   ##  ##  ##      ## ##      ##   ##   ##       ##        **
 **     #######   #####   ##   #####  ##  ##  ####    ##    #####   ##        **
 **           ##                                                    ##        **
 **                                                                           **
 **                                                ... make the atoms dance   **
 **                                                                           **
 **            Copyright (C) by CP2K developers group (2000-2022)             **
 **                      J. Chem. Phys. 152, 194103 (2020)                    **
 **                                                                           **
 *******************************************************************************


 TOTAL NUMBERS AND MAXIMUM NUMBERS

  Total number of            - Atomic kinds:                                   2
                             - Atoms:                                        193
                             - Shell sets:                                   193
                             - Shells:                                       965
                             - Primitive Cartesian functions:                967
                             - Cartesian basis functions:                   2697
                             - Spherical basis functions:                   2505

  Maximum angular momentum of- Orbital basis functions:                        2
                             - Local part of the GTH pseudopotential:          2
                             - Non-local part of the GTH pseudopotential:      1


 SCF PARAMETERS         Density guess:                                    ATOMIC
                        --------------------------------------------------------
                        max_scf:                                             300
                        max_scf_history:                                       0
                        max_diis:                                              4
                        --------------------------------------------------------
                        eps_scf:                                        3.00E-07
                        eps_scf_history:                                0.00E+00
                        eps_diis:                                       1.00E-01
                        eps_eigval:                                     1.00E-05
                        --------------------------------------------------------
                        level_shift [a.u.]:                             0.000000
                        added MOs                                       100    0
                        --------------------------------------------------------
                        Mixing method:                            BROYDEN_MIXING
                                                charge density mixing in g-space
                        --------------------------------------------------------
                        Smear method:                                FERMI_DIRAC
                        Electronic temperature [K]:                        300.0
                        Electronic temperature [a.u.]:                  9.50E-04
                        Accuracy threshold:                             1.00E-10
                        --------------------------------------------------------
                        Outer loop SCF in use 
                        No variables optimised in outer loop
                        eps_scf                                         1.00E-06
                        max_scf                                              300
                        DIIS optimization
                        DIIS buffer length                                     3
                        step_size                                       5.00E-01

 -------------------------------------------------------------------------------
 -                                                                             -
 -  BSSE CALCULATION         FRAGMENT CONF: 10        FRAGMENT SUBCONF: 10     -
 -                           CHARGE =     0           MULTIPLICITY =     0     -
 -                                                                             -
 -                 ATOM INDEX                              ATOM NAME           -
 -                 ----------                              ---------           -
 -                      1                                   C                  -
 -                      2                                   C                  -
 -                      3                                   C                  -
 -                      4                                   C                  -
 -                      5                                   C                  -
 -                      6                                   C                  -
 -                      7                                   C                  -
 -                      8                                   C                  -
 -                      9                                   C                  -
 -                     10                                   C                  -
 -                     11                                   C                  -
 -                     12                                   C                  -
 -                     13                                   C                  -
 -                     14                                   C                  -
 -                     15                                   C                  -
 -                     16                                   C                  -
 -                     17                                   C                  -
 -                     18                                   C                  -
 -                     19                                   C                  -
 -                     20                                   C                  -
 -                     21                                   C                  -
 -                     22                                   C                  -
 -                     23                                   C                  -
 -                     24                                   C                  -
 -                     25                                   C                  -
 -                     26                                   C                  -
 -                     27                                   C                  -
 -                     28                                   C                  -
 -                     29                                   C                  -
 -                     30                                   C                  -
 -                     31                                   C                  -
 -                     32                                   C                  -
 -                     33                                   C                  -
 -                     34                                   C                  -
 -                     35                                   C                  -
 -                     36                                   C                  -
 -                     37                                   C                  -
 -                     38                                   C                  -
 -                     39                                   C                  -
 -                     40                                   C                  -
 -                     41                                   C                  -
 -                     42                                   C                  -
 -                     43                                   C                  -
 -                     44                                   C                  -
 -                     45                                   C                  -
 -                     46                                   C                  -
 -                     47                                   C                  -
 -                     48                                   C                  -
 -                     49                                   C                  -
 -                     50                                   C                  -
 -                     51                                   C                  -
 -                     52                                   C                  -
 -                     53                                   C                  -
 -                     54                                   C                  -
 -                     55                                   C                  -
 -                     56                                   C                  -
 -                     57                                   C                  -
 -                     58                                   C                  -
 -                     59                                   C                  -
 -                     60                                   C                  -
 -                     61                                   C                  -
 -                     62                                   C                  -
 -                     63                                   C                  -
 -                     64                                   C                  -
 -                     65                                   C                  -
 -                     66                                   C                  -
 -                     67                                   C                  -
 -                     68                                   C                  -
 -                     69                                   C                  -
 -                     70                                   C                  -
 -                     71                                   C                  -
 -                     72                                   C                  -
 -                     73                                   C                  -
 -                     74                                   C                  -
 -                     75                                   C                  -
 -                     76                                   C                  -
 -                     77                                   C                  -
 -                     78                                   C                  -
 -                     79                                   C                  -
 -                     80                                   C                  -
 -                     81                                   C                  -
 -                     82                                   C                  -
 -                     83                                   C                  -
 -                     84                                   C                  -
 -                     85                                   C                  -
 -                     86                                   C                  -
 -                     87                                   C                  -
 -                     88                                   C                  -
 -                     89                                   C                  -
 -                     90                                   C                  -
 -                     91                                   C                  -
 -                     92                                   C                  -
 -                     93                                   C                  -
 -                     94                                   C                  -
 -                     95                                   C                  -
 -                     96                                   C                  -
 -                     97                                   C                  -
 -                     98                                   C                  -
 -                     99                                   C                  -
 -                    100                                   C                  -
 -                    101                                   C                  -
 -                    102                                   C                  -
 -                    103                                   C                  -
 -                    104                                   C                  -
 -                    105                                   C                  -
 -                    106                                   C                  -
 -                    107                                   C                  -
 -                    108                                   C                  -
 -                    109                                   C                  -
 -                    110                                   C                  -
 -                    111                                   C                  -
 -                    112                                   C                  -
 -                    113                                   C                  -
 -                    114                                   C                  -
 -                    115                                   C                  -
 -                    116                                   C                  -
 -                    117                                   C                  -
 -                    118                                   C                  -
 -                    119                                   C                  -
 -                    120                                   C                  -
 -                    121                                   C                  -
 -                    122                                   C                  -
 -                    123                                   C                  -
 -                    124                                   C                  -
 -                    125                                   C                  -
 -                    126                                   C                  -
 -                    127                                   C                  -
 -                    128                                   C                  -
 -                    129                                   C                  -
 -                    130                                   C                  -
 -                    131                                   C                  -
 -                    132                                   C                  -
 -                    133                                   C                  -
 -                    134                                   C                  -
 -                    135                                   C                  -
 -                    136                                   C                  -
 -                    137                                   C                  -
 -                    138                                   C                  -
 -                    139                                   C                  -
 -                    140                                   C                  -
 -                    141                                   C                  -
 -                    142                                   C                  -
 -                    143                                   C                  -
 -                    144                                   C                  -
 -                    145                                   C                  -
 -                    146                                   C                  -
 -                    147                                   C                  -
 -                    148                                   C                  -
 -                    149                                   C                  -
 -                    150                                   C                  -
 -                    151                                   C                  -
 -                    152                                   C                  -
 -                    153                                   C                  -
 -                    154                                   C                  -
 -                    155                                   C                  -
 -                    156                                   C                  -
 -                    157                                   C                  -
 -                    158                                   C                  -
 -                    159                                   C                  -
 -                    160                                   C                  -
 -                    161                                   C                  -
 -                    162                                   C                  -
 -                    163                                   C                  -
 -                    164                                   C                  -
 -                    165                                   C                  -
 -                    166                                   C                  -
 -                    167                                   C                  -
 -                    168                                   C                  -
 -                    169                                   C                  -
 -                    170                                   C                  -
 -                    171                                   C                  -
 -                    172                                   C                  -
 -                    173                                   C                  -
 -                    174                                   C                  -
 -                    175                                   C                  -
 -                    176                                   C                  -
 -                    177                                   C                  -
 -                    178                                   C                  -
 -                    179                                   C                  -
 -                    180                                   C                  -
 -                    181                                   C                  -
 -                    182                                   C                  -
 -                    183                                   C                  -
 -                    184                                   C                  -
 -                    185                                   C                  -
 -                    186                                   C                  -
 -                    187                                   C                  -
 -                    188                                   C                  -
 -                    189                                   C                  -
 -                    190                                   C                  -
 -                    191                                   C                  -
 -                    192                                   C                  -
 -------------------------------------------------------------------------------

 *******************************************************************************
 *******************************************************************************
 **                                                                           **
 **     #####                         ##              ##                      **
 **    ##   ##            ##          ##              ##                      **
 **   ##     ##                       ##            ######                    **
 **   ##     ##  ##   ##  ##   #####  ##  ##   ####   ##    #####    #####    **
 **   ##     ##  ##   ##  ##  ##      ## ##   ##      ##   ##   ##  ##   ##   **
 **   ##  ## ##  ##   ##  ##  ##      ####     ###    ##   ######   ######    **
 **    ##  ###   ##   ##  ##  ##      ## ##      ##   ##   ##       ##        **
 **     #######   #####   ##   #####  ##  ##  ####    ##    #####   ##        **
 **           ##                                                    ##        **
 **                                                                           **
 **                                                ... make the atoms dance   **
 **                                                                           **
 **            Copyright (C) by CP2K developers group (2000-2022)             **
 **                      J. Chem. Phys. 152, 194103 (2020)                    **
 **                                                                           **
 *******************************************************************************


 TOTAL NUMBERS AND MAXIMUM NUMBERS

  Total number of            - Atomic kinds:                                   1
                             - Atoms:                                        192
                             - Shell sets:                                   192
                             - Shells:                                       960
                             - Primitive Cartesian functions:                960
                             - Cartesian basis functions:                   2688
                             - Spherical basis functions:                   2496

  Maximum angular momentum of- Orbital basis functions:                        2
                             - Local part of the GTH pseudopotential:          2
                             - Non-local part of the GTH pseudopotential:      0


 SCF PARAMETERS         Density guess:                                    ATOMIC
                        --------------------------------------------------------
                        max_scf:                                             300
                        max_scf_history:                                       0
                        max_diis:                                              4
                        --------------------------------------------------------
                        eps_scf:                                        3.00E-07
                        eps_scf_history:                                0.00E+00
                        eps_diis:                                       1.00E-01
                        eps_eigval:                                     1.00E-05
                        --------------------------------------------------------
                        level_shift [a.u.]:                             0.000000
                        added MOs                                       100    0
                        --------------------------------------------------------
                        Mixing method:                            BROYDEN_MIXING
                                                charge density mixing in g-space
                        --------------------------------------------------------
                        Smear method:                                FERMI_DIRAC
                        Electronic temperature [K]:                        300.0
                        Electronic temperature [a.u.]:                  9.50E-04
                        Accuracy threshold:                             1.00E-10
                        --------------------------------------------------------
                        Outer loop SCF in use 
                        No variables optimised in outer loop
                        eps_scf                                         1.00E-06
                        max_scf                                              300
                        DIIS optimization
                        DIIS buffer length                                     3
                        step_size                                       5.00E-01

 Number of electrons:                                                        768
 Number of occupied orbitals:                                                384
 Number of molecular orbitals:                                               484

 Number of orbital functions:                                               2496
 Number of independent orbital functions:                                   2496

 Extrapolation method: initial_guess


 SCF WAVEFUNCTION OPTIMIZATION

  Step     Update method      Time    Convergence         Total energy    Change
  ------------------------------------------------------------------------------
     1 NoMix/Diag. 0.10E+00    3.2     0.92560673     -1085.8009571955 -1.09E+03
     2 Broy./Diag. 0.10E+00    4.3     0.00227876     -1044.7274157728  4.11E+01
     3 Broy./Diag. 0.10E+00    4.4     0.02535887     -1076.6165081883 -3.19E+01
     4 Broy./Diag. 0.10E+00    4.4     0.00037531     -1090.2038347558 -1.36E+01
     5 Broy./Diag. 0.10E+00    4.4     0.00310285     -1090.7798321365 -5.76E-01
     6 Broy./Diag. 0.10E+00    4.5     0.00010565     -1091.9462365745 -1.17E+00
     7 Broy./Diag. 0.10E+00    4.5     0.00083628     -1092.4634892812 -5.17E-01
     8 Broy./Diag. 0.10E+00    4.6     0.00004798     -1092.8231388953 -3.60E-01
     9 Broy./Diag. 0.10E+00    4.6     0.00074182     -1092.9954984545 -1.72E-01
    10 Broy./Diag. 0.10E+00    4.7     0.00005110     -1093.2116854149 -2.16E-01
    11 Broy./Diag. 0.10E+00    4.7     0.00066211     -1093.1703916344  4.13E-02
    12 Broy./Diag. 0.10E+00    4.7     0.00002927     -1093.2486745264 -7.83E-02
    13 Broy./Diag. 0.10E+00    4.7     0.00058424     -1093.2822494207 -3.36E-02
    14 Broy./Diag. 0.10E+00    4.7     0.00005965     -1093.3206851612 -3.84E-02
    15 Broy./Diag. 0.10E+00    4.7     0.00033437     -1093.3581212040 -3.74E-02
    16 Broy./Diag. 0.10E+00    4.7     0.00003827     -1093.3761017341 -1.80E-02
    17 Broy./Diag. 0.10E+00    4.7     0.00008287     -1093.3560723149  2.00E-02
    18 Broy./Diag. 0.10E+00    4.7     0.00001515     -1093.3453330755  1.07E-02
    19 Broy./Diag. 0.10E+00    4.7     0.00001543     -1093.3425013969  2.83E-03
    20 Broy./Diag. 0.10E+00    4.7     0.00000640     -1093.3442277737 -1.73E-03
    21 Broy./Diag. 0.10E+00    4.7     0.00000947     -1093.3445520946 -3.24E-04
    22 Broy./Diag. 0.10E+00    4.7     0.00001722     -1093.3488254940 -4.27E-03
    23 Broy./Diag. 0.10E+00    4.7     0.00000677     -1093.3521656061 -3.34E-03
    24 Broy./Diag. 0.10E+00    4.7     0.00003684     -1093.3510461893  1.12E-03
    25 Broy./Diag. 0.10E+00    4.7     0.00000776     -1093.3520464552 -1.00E-03
    26 Broy./Diag. 0.10E+00    4.7     0.00004514     -1093.3530528040 -1.01E-03
    27 Broy./Diag. 0.10E+00    4.7     0.00001158     -1093.3573968597 -4.34E-03
    28 Broy./Diag. 0.10E+00    4.7     0.00000917     -1093.3607110458 -3.31E-03
    29 Broy./Diag. 0.10E+00    4.7     0.00000657     -1093.3626248413 -1.91E-03
    30 Broy./Diag. 0.10E+00    4.7     0.00000222     -1093.3632307451 -6.06E-04
    31 Broy./Diag. 0.10E+00    4.7     0.00001086     -1093.3634323373 -2.02E-04
    32 Broy./Diag. 0.10E+00    4.7     0.00000224     -1093.3654050442 -1.97E-03
    33 Broy./Diag. 0.10E+00    4.7     0.00000577     -1093.3648912166  5.14E-04
    34 Broy./Diag. 0.10E+00    4.7     0.00000610     -1093.3660490599 -1.16E-03
    35 Broy./Diag. 0.10E+00    4.7     0.00000324     -1093.3673469856 -1.30E-03
    36 Broy./Diag. 0.10E+00    4.7     0.00001134     -1093.3679156185 -5.69E-04
    37 Broy./Diag. 0.10E+00    4.7     0.00000362     -1093.3676948290  2.21E-04
    38 Broy./Diag. 0.10E+00    4.7     0.00000943     -1093.3669860319  7.09E-04
    39 Broy./Diag. 0.10E+00    4.7     0.00000458     -1093.3676536579 -6.68E-04
    40 Broy./Diag. 0.10E+00    4.7     0.00000707     -1093.3687020968 -1.05E-03
    41 Broy./Diag. 0.10E+00    4.7     0.00000132     -1093.3694362636 -7.34E-04
    42 Broy./Diag. 0.10E+00    4.7     0.00000070     -1093.3695578111 -1.22E-04
    43 Broy./Diag. 0.10E+00    4.7     0.00000163     -1093.3698157584 -2.58E-04
    44 Broy./Diag. 0.10E+00    4.7     0.00000164     -1093.3698439003 -2.81E-05
    45 Broy./Diag. 0.10E+00    4.7     0.00000169     -1093.3696269154  2.17E-04
    46 Broy./Diag. 0.10E+00    4.7     0.00000211     -1093.3697467090 -1.20E-04
    47 Broy./Diag. 0.10E+00    4.7     0.00000166     -1093.3699028371 -1.56E-04
    48 Broy./Diag. 0.10E+00    4.7     0.00000130     -1093.3701165604 -2.14E-04
    49 Broy./Diag. 0.10E+00    4.7     0.00000057     -1093.3701710191 -5.45E-05
    50 Broy./Diag. 0.10E+00    4.7     0.00000151     -1093.3701287892  4.22E-05
    51 Broy./Diag. 0.10E+00    4.7     0.00000029     -1093.3701108599  1.79E-05

  *** SCF run converged in    51 steps ***


  Electronic density on regular grids:       -768.0000000000        0.0000000000
  Core density on regular grids:              767.9999999993       -0.0000000007
  Total charge density on r-space grids:       -0.0000000006
  Total charge density g-space grids:          -0.0000000006

  Overlap energy of the core charge distribution:               0.00002938601337
  Self energy of the core charge distribution:              -2560.32152193892080
  Core Hamiltonian energy:                                    800.58198521578049
  Hartree energy:                                            1001.68283626581672
  Exchange-correlation energy:                               -335.06704207550820
  Dispersion energy:                                           -0.24639750307811
  Electronic entropic energy:                                  -0.00000021002040
  Fermi energy:                                                -0.10937427754273

  Total energy:                                             -1093.37011085991708

  outer SCF iter =    1 RMS gradient =   0.29E-06 energy =      -1093.3701108599
  outer SCF loop converged in   1 iterations or   51 steps


 *** WARNING in qs_loc_utils.F:1500 :: User requested the calculation of ***
 *** the localized wavefunction but the section LOCALIZE was not         ***
 *** specified. Localization will not be performed!                      ***


 -------------------------------------------------------------------------------
 -                                                                             -
 -  BSSE CALCULATION         FRAGMENT CONF: 01        FRAGMENT SUBCONF: 01     -
 -                           CHARGE =     0           MULTIPLICITY =     0     -
 -                                                                             -
 -                 ATOM INDEX                              ATOM NAME           -
 -                 ----------                              ---------           -
 -                    193                                   Na                 -
 -------------------------------------------------------------------------------

 *******************************************************************************
 *******************************************************************************
 **                                                                           **
 **     #####                         ##              ##                      **
 **    ##   ##            ##          ##              ##                      **
 **   ##     ##                       ##            ######                    **
 **   ##     ##  ##   ##  ##   #####  ##  ##   ####   ##    #####    #####    **
 **   ##     ##  ##   ##  ##  ##      ## ##   ##      ##   ##   ##  ##   ##   **
 **   ##  ## ##  ##   ##  ##  ##      ####     ###    ##   ######   ######    **
 **    ##  ###   ##   ##  ##  ##      ## ##      ##   ##   ##       ##        **
 **     #######   #####   ##   #####  ##  ##  ####    ##    #####   ##        **
 **           ##                                                    ##        **
 **                                                                           **
 **                                                ... make the atoms dance   **
 **                                                                           **
 **            Copyright (C) by CP2K developers group (2000-2022)             **
 **                      J. Chem. Phys. 152, 194103 (2020)                    **
 **                                                                           **
 *******************************************************************************

 *** WARNING in qs_environment.F:1486 :: More added MOs requested than     ***
 *** available. The full set of unoccupied MOs will be used. Use           ***
 *** 'ADDED_MOS -1' to always use all available MOs and to get rid of this ***
 *** warning.                                                              ***



 TOTAL NUMBERS AND MAXIMUM NUMBERS

  Total number of            - Atomic kinds:                                   1
                             - Atoms:                                          1
                             - Shell sets:                                     1
                             - Shells:                                         5
                             - Primitive Cartesian functions:                  7
                             - Cartesian basis functions:                      9
                             - Spherical basis functions:                      9

  Maximum angular momentum of- Orbital basis functions:                        1
                             - Local part of the GTH pseudopotential:          2
                             - Non-local part of the GTH pseudopotential:      1


 SCF PARAMETERS         Density guess:                                    ATOMIC
                        --------------------------------------------------------
                        max_scf:                                             300
                        max_scf_history:                                       0
                        max_diis:                                              4
                        --------------------------------------------------------
                        eps_scf:                                        3.00E-07
                        eps_scf_history:                                0.00E+00
                        eps_diis:                                       1.00E-01
                        eps_eigval:                                     1.00E-05
                        --------------------------------------------------------
                        level_shift [a.u.]:                             0.000000
                        added MOs                                         4    0
                        --------------------------------------------------------
                        Mixing method:                            BROYDEN_MIXING
                                                charge density mixing in g-space
                        --------------------------------------------------------
                        Smear method:                                FERMI_DIRAC
                        Electronic temperature [K]:                        300.0
                        Electronic temperature [a.u.]:                  9.50E-04
                        Accuracy threshold:                             1.00E-10
                        --------------------------------------------------------
                        Outer loop SCF in use 
                        No variables optimised in outer loop
                        eps_scf                                         1.00E-06
                        max_scf                                              300
                        DIIS optimization
                        DIIS buffer length                                     3
                        step_size                                       5.00E-01

 Number of electrons:                                                          9
 Number of occupied orbitals:                                                  5
 Number of molecular orbitals:                                                 9

 Number of orbital functions:                                                  9
 Number of independent orbital functions:                                      9

 Extrapolation method: initial_guess


 SCF WAVEFUNCTION OPTIMIZATION

  Step     Update method      Time    Convergence         Total energy    Change
  ------------------------------------------------------------------------------
     1 NoMix/Diag. 0.10E+00    0.6     0.02074928       -47.1653308399 -4.72E+01
     2 Broy./Diag. 0.10E+00    1.3     0.00009781       -47.1219043561  4.34E-02
     3 Broy./Diag. 0.10E+00    1.4     0.00101027       -47.1632909477 -4.14E-02
     4 Broy./Diag. 0.10E+00    1.4     0.00002407       -47.1710489465 -7.76E-03
     5 Broy./Diag. 0.10E+00    1.5     0.00026049       -47.1710248618  2.41E-05
     6 Broy./Diag. 0.10E+00    1.5     0.00000867       -47.1711470702 -1.22E-04
     7 Broy./Diag. 0.10E+00    1.5     0.00014795       -47.1693788475  1.77E-03
     8 Broy./Diag. 0.10E+00    1.6     0.00001917       -47.1683880981  9.91E-04
     9 Broy./Diag. 0.10E+00    1.6     0.00019701       -47.1677600298  6.28E-04
    10 Broy./Diag. 0.10E+00    1.7     0.00000921       -47.1673871328  3.73E-04
    11 Broy./Diag. 0.10E+00    1.7     0.00009140       -47.1672137903  1.73E-04
    12 Broy./Diag. 0.10E+00    1.7     0.00000151       -47.1671776494  3.61E-05
    13 Broy./Diag. 0.10E+00    1.7     0.00000566       -47.1672995680 -1.22E-04
    14 Broy./Diag. 0.10E+00    1.7     0.00000081       -47.1673216483 -2.21E-05
    15 Broy./Diag. 0.10E+00    1.7     0.00001106       -47.1671471002  1.75E-04
    16 Broy./Diag. 0.10E+00    1.7     0.00000229       -47.1671265190  2.06E-05
    17 Broy./Diag. 0.10E+00    1.7     0.00000235       -47.1671776842 -5.12E-05
    18 Broy./Diag. 0.10E+00    1.7     0.00000209       -47.1672223009 -4.46E-05
    19 Broy./Diag. 0.10E+00    1.7     0.00000212       -47.1672405646 -1.83E-05
    20 Broy./Diag. 0.10E+00    1.7     0.00000189       -47.1672340383  6.53E-06
    21 Broy./Diag. 0.10E+00    1.7     0.00000225       -47.1672144947  1.95E-05
    22 Broy./Diag. 0.10E+00    1.7     0.00000261       -47.1671939531  2.05E-05
    23 Broy./Diag. 0.10E+00    1.7     0.00000360       -47.1671730851  2.09E-05
    24 Broy./Diag. 0.10E+00    1.7     0.00000073       -47.1671713894  1.70E-06
    25 Broy./Diag. 0.10E+00    1.7     0.00000032       -47.1671820908 -1.07E-05
    26 Broy./Diag. 0.10E+00    1.7     0.00000026       -47.1671757626  6.33E-06

  *** SCF run converged in    26 steps ***


  Electronic density on regular grids:         -9.0003980652       -0.0003980652
  Core density on regular grids:                9.0000000000       -0.0000000000
  Total charge density on r-space grids:       -0.0003980652
  Total charge density g-space grids:          -0.0003980652

  Overlap energy of the core charge distribution:               0.00000000000000
  Self energy of the core charge distribution:                -96.60649019442629
  Core Hamiltonian energy:                                     29.76237869925749
  Hartree energy:                                              26.72264615758471
  Exchange-correlation energy:                                 -7.04438478687378
  Dispersion energy:                                           -0.00000859667287
  Electronic entropic energy:                                  -0.00131704147593
  Fermi energy:                                                -0.09138338666223

  Total energy:                                               -47.16717576260665

  outer SCF iter =    1 RMS gradient =   0.26E-06 energy =        -47.1671757626
  outer SCF loop converged in   1 iterations or   26 steps


 *** WARNING in qs_loc_utils.F:1500 :: User requested the calculation of ***
 *** the localized wavefunction but the section LOCALIZE was not         ***
 *** specified. Localization will not be performed!                      ***


 -------------------------------------------------------------------------------
 -                                                                             -
 -  BSSE CALCULATION         FRAGMENT CONF: 11        FRAGMENT SUBCONF: 10     -
 -                           CHARGE =     0           MULTIPLICITY =     0     -
 -                                                                             -
 -                 ATOM INDEX                              ATOM NAME           -
 -                 ----------                              ---------           -
 -                      1                                   C                  -
 -                      2                                   C                  -
 -                      3                                   C                  -
 -                      4                                   C                  -
 -                      5                                   C                  -
 -                      6                                   C                  -
 -                      7                                   C                  -
 -                      8                                   C                  -
 -                      9                                   C                  -
 -                     10                                   C                  -
 -                     11                                   C                  -
 -                     12                                   C                  -
 -                     13                                   C                  -
 -                     14                                   C                  -
 -                     15                                   C                  -
 -                     16                                   C                  -
 -                     17                                   C                  -
 -                     18                                   C                  -
 -                     19                                   C                  -
 -                     20                                   C                  -
 -                     21                                   C                  -
 -                     22                                   C                  -
 -                     23                                   C                  -
 -                     24                                   C                  -
 -                     25                                   C                  -
 -                     26                                   C                  -
 -                     27                                   C                  -
 -                     28                                   C                  -
 -                     29                                   C                  -
 -                     30                                   C                  -
 -                     31                                   C                  -
 -                     32                                   C                  -
 -                     33                                   C                  -
 -                     34                                   C                  -
 -                     35                                   C                  -
 -                     36                                   C                  -
 -                     37                                   C                  -
 -                     38                                   C                  -
 -                     39                                   C                  -
 -                     40                                   C                  -
 -                     41                                   C                  -
 -                     42                                   C                  -
 -                     43                                   C                  -
 -                     44                                   C                  -
 -                     45                                   C                  -
 -                     46                                   C                  -
 -                     47                                   C                  -
 -                     48                                   C                  -
 -                     49                                   C                  -
 -                     50                                   C                  -
 -                     51                                   C                  -
 -                     52                                   C                  -
 -                     53                                   C                  -
 -                     54                                   C                  -
 -                     55                                   C                  -
 -                     56                                   C                  -
 -                     57                                   C                  -
 -                     58                                   C                  -
 -                     59                                   C                  -
 -                     60                                   C                  -
 -                     61                                   C                  -
 -                     62                                   C                  -
 -                     63                                   C                  -
 -                     64                                   C                  -
 -                     65                                   C                  -
 -                     66                                   C                  -
 -                     67                                   C                  -
 -                     68                                   C                  -
 -                     69                                   C                  -
 -                     70                                   C                  -
 -                     71                                   C                  -
 -                     72                                   C                  -
 -                     73                                   C                  -
 -                     74                                   C                  -
 -                     75                                   C                  -
 -                     76                                   C                  -
 -                     77                                   C                  -
 -                     78                                   C                  -
 -                     79                                   C                  -
 -                     80                                   C                  -
 -                     81                                   C                  -
 -                     82                                   C                  -
 -                     83                                   C                  -
 -                     84                                   C                  -
 -                     85                                   C                  -
 -                     86                                   C                  -
 -                     87                                   C                  -
 -                     88                                   C                  -
 -                     89                                   C                  -
 -                     90                                   C                  -
 -                     91                                   C                  -
 -                     92                                   C                  -
 -                     93                                   C                  -
 -                     94                                   C                  -
 -                     95                                   C                  -
 -                     96                                   C                  -
 -                     97                                   C                  -
 -                     98                                   C                  -
 -                     99                                   C                  -
 -                    100                                   C                  -
 -                    101                                   C                  -
 -                    102                                   C                  -
 -                    103                                   C                  -
 -                    104                                   C                  -
 -                    105                                   C                  -
 -                    106                                   C                  -
 -                    107                                   C                  -
 -                    108                                   C                  -
 -                    109                                   C                  -
 -                    110                                   C                  -
 -                    111                                   C                  -
 -                    112                                   C                  -
 -                    113                                   C                  -
 -                    114                                   C                  -
 -                    115                                   C                  -
 -                    116                                   C                  -
 -                    117                                   C                  -
 -                    118                                   C                  -
 -                    119                                   C                  -
 -                    120                                   C                  -
 -                    121                                   C                  -
 -                    122                                   C                  -
 -                    123                                   C                  -
 -                    124                                   C                  -
 -                    125                                   C                  -
 -                    126                                   C                  -
 -                    127                                   C                  -
 -                    128                                   C                  -
 -                    129                                   C                  -
 -                    130                                   C                  -
 -                    131                                   C                  -
 -                    132                                   C                  -
 -                    133                                   C                  -
 -                    134                                   C                  -
 -                    135                                   C                  -
 -                    136                                   C                  -
 -                    137                                   C                  -
 -                    138                                   C                  -
 -                    139                                   C                  -
 -                    140                                   C                  -
 -                    141                                   C                  -
 -                    142                                   C                  -
 -                    143                                   C                  -
 -                    144                                   C                  -
 -                    145                                   C                  -
 -                    146                                   C                  -
 -                    147                                   C                  -
 -                    148                                   C                  -
 -                    149                                   C                  -
 -                    150                                   C                  -
 -                    151                                   C                  -
 -                    152                                   C                  -
 -                    153                                   C                  -
 -                    154                                   C                  -
 -                    155                                   C                  -
 -                    156                                   C                  -
 -                    157                                   C                  -
 -                    158                                   C                  -
 -                    159                                   C                  -
 -                    160                                   C                  -
 -                    161                                   C                  -
 -                    162                                   C                  -
 -                    163                                   C                  -
 -                    164                                   C                  -
 -                    165                                   C                  -
 -                    166                                   C                  -
 -                    167                                   C                  -
 -                    168                                   C                  -
 -                    169                                   C                  -
 -                    170                                   C                  -
 -                    171                                   C                  -
 -                    172                                   C                  -
 -                    173                                   C                  -
 -                    174                                   C                  -
 -                    175                                   C                  -
 -                    176                                   C                  -
 -                    177                                   C                  -
 -                    178                                   C                  -
 -                    179                                   C                  -
 -                    180                                   C                  -
 -                    181                                   C                  -
 -                    182                                   C                  -
 -                    183                                   C                  -
 -                    184                                   C                  -
 -                    185                                   C                  -
 -                    186                                   C                  -
 -                    187                                   C                  -
 -                    188                                   C                  -
 -                    189                                   C                  -
 -                    190                                   C                  -
 -                    191                                   C                  -
 -                    192                                   C                  -
 -                    193                                   Na_ghost           -
 -------------------------------------------------------------------------------

 *******************************************************************************
 *******************************************************************************
 **                                                                           **
 **     #####                         ##              ##                      **
 **    ##   ##            ##          ##              ##                      **
 **   ##     ##                       ##            ######                    **
 **   ##     ##  ##   ##  ##   #####  ##  ##   ####   ##    #####    #####    **
 **   ##     ##  ##   ##  ##  ##      ## ##   ##      ##   ##   ##  ##   ##   **
 **   ##  ## ##  ##   ##  ##  ##      ####     ###    ##   ######   ######    **
 **    ##  ###   ##   ##  ##  ##      ## ##      ##   ##   ##       ##        **
 **     #######   #####   ##   #####  ##  ##  ####    ##    #####   ##        **
 **           ##                                                    ##        **
 **                                                                           **
 **                                                ... make the atoms dance   **
 **                                                                           **
 **            Copyright (C) by CP2K developers group (2000-2022)             **
 **                      J. Chem. Phys. 152, 194103 (2020)                    **
 **                                                                           **
 *******************************************************************************


 TOTAL NUMBERS AND MAXIMUM NUMBERS

  Total number of            - Atomic kinds:                                   2
                             - Atoms:                                        193
                             - Shell sets:                                   193
                             - Shells:                                       965
                             - Primitive Cartesian functions:                967
                             - Cartesian basis functions:                   2697
                             - Spherical basis functions:                   2505

  Maximum angular momentum of- Orbital basis functions:                        2
                             - Local part of the GTH pseudopotential:          2
                             - Non-local part of the GTH pseudopotential:      0


 SCF PARAMETERS         Density guess:                                    ATOMIC
                        --------------------------------------------------------
                        max_scf:                                             300
                        max_scf_history:                                       0
                        max_diis:                                              4
                        --------------------------------------------------------
                        eps_scf:                                        3.00E-07
                        eps_scf_history:                                0.00E+00
                        eps_diis:                                       1.00E-01
                        eps_eigval:                                     1.00E-05
                        --------------------------------------------------------
                        level_shift [a.u.]:                             0.000000
                        added MOs                                       100    0
                        --------------------------------------------------------
                        Mixing method:                            BROYDEN_MIXING
                                                charge density mixing in g-space
                        --------------------------------------------------------
                        Smear method:                                FERMI_DIRAC
                        Electronic temperature [K]:                        300.0
                        Electronic temperature [a.u.]:                  9.50E-04
                        Accuracy threshold:                             1.00E-10
                        --------------------------------------------------------
                        Outer loop SCF in use 
                        No variables optimised in outer loop
                        eps_scf                                         1.00E-06
                        max_scf                                              300
                        DIIS optimization
                        DIIS buffer length                                     3
                        step_size                                       5.00E-01

 Number of electrons:                                                        768
 Number of occupied orbitals:                                                384
 Number of molecular orbitals:                                               484

 Number of orbital functions:                                               2505
 Number of independent orbital functions:                                   2505

 Extrapolation method: initial_guess


 SCF WAVEFUNCTION OPTIMIZATION

  Step     Update method      Time    Convergence         Total energy    Change
  ------------------------------------------------------------------------------
     1 NoMix/Diag. 0.10E+00    3.2     0.92582996     -1085.8009571955 -1.09E+03
     2 Broy./Diag. 0.10E+00    4.3     0.00227898     -1044.7193339264  4.11E+01
     3 Broy./Diag. 0.10E+00    4.4     0.02536137     -1076.6023480098 -3.19E+01
     4 Broy./Diag. 0.10E+00    4.4     0.00037498     -1090.1965120949 -1.36E+01
     5 Broy./Diag. 0.10E+00    4.4     0.00305080     -1090.7730571310 -5.77E-01
     6 Broy./Diag. 0.10E+00    4.4     0.00010725     -1091.9416317849 -1.17E+00
     7 Broy./Diag. 0.10E+00    4.5     0.00085699     -1092.4606248141 -5.19E-01
     8 Broy./Diag. 0.10E+00    4.6     0.00004988     -1092.8224283735 -3.62E-01
     9 Broy./Diag. 0.10E+00    4.6     0.00076009     -1092.9956101330 -1.73E-01
    10 Broy./Diag. 0.10E+00    4.7     0.00005204     -1093.2138421126 -2.18E-01
    11 Broy./Diag. 0.10E+00    4.7     0.00067774     -1093.1716002529  4.22E-02
    12 Broy./Diag. 0.10E+00    4.7     0.00002864     -1093.2503218886 -7.87E-02
    13 Broy./Diag. 0.10E+00    4.7     0.00059657     -1093.2850411347 -3.47E-02
    14 Broy./Diag. 0.10E+00    4.7     0.00006059     -1093.3238581756 -3.88E-02
    15 Broy./Diag. 0.10E+00    4.7     0.00034969     -1093.3608417852 -3.70E-02
    16 Broy./Diag. 0.10E+00    4.7     0.00004116     -1093.3785361998 -1.77E-02
    17 Broy./Diag. 0.10E+00    4.7     0.00008320     -1093.3580734899  2.05E-02
    18 Broy./Diag. 0.10E+00    4.7     0.00001501     -1093.3472628007  1.08E-02
    19 Broy./Diag. 0.10E+00    4.7     0.00001930     -1093.3441669108  3.10E-03
    20 Broy./Diag. 0.10E+00    4.7     0.00000681     -1093.3457061183 -1.54E-03
    21 Broy./Diag. 0.10E+00    4.7     0.00000905     -1093.3458906106 -1.84E-04
    22 Broy./Diag. 0.10E+00    4.7     0.00001864     -1093.3507003957 -4.81E-03
    23 Broy./Diag. 0.10E+00    4.7     0.00000791     -1093.3547694571 -4.07E-03
    24 Broy./Diag. 0.10E+00    4.7     0.00003232     -1093.3539446742  8.25E-04
    25 Broy./Diag. 0.10E+00    4.7     0.00000557     -1093.3543445450 -4.00E-04
    26 Broy./Diag. 0.10E+00    4.7     0.00005738     -1093.3558614706 -1.52E-03
    27 Broy./Diag. 0.10E+00    4.7     0.00001134     -1093.3614654377 -5.60E-03
    28 Broy./Diag. 0.10E+00    4.7     0.00001146     -1093.3649782133 -3.51E-03
    29 Broy./Diag. 0.10E+00    4.7     0.00000915     -1093.3668400890 -1.86E-03
    30 Broy./Diag. 0.10E+00    4.7     0.00000285     -1093.3674380457 -5.98E-04
    31 Broy./Diag. 0.10E+00    4.7     0.00000997     -1093.3674844588 -4.64E-05
    32 Broy./Diag. 0.10E+00    4.7     0.00000212     -1093.3689130392 -1.43E-03
    33 Broy./Diag. 0.10E+00    4.7     0.00000584     -1093.3683605179  5.53E-04
    34 Broy./Diag. 0.10E+00    4.7     0.00000531     -1093.3695462726 -1.19E-03
    35 Broy./Diag. 0.10E+00    4.7     0.00000386     -1093.3708032214 -1.26E-03
    36 Broy./Diag. 0.10E+00    4.7     0.00000974     -1093.3711559325 -3.53E-04
    37 Broy./Diag. 0.10E+00    4.7     0.00000339     -1093.3706904940  4.65E-04
    38 Broy./Diag. 0.10E+00    4.7     0.00000812     -1093.3697939112  8.97E-04
    39 Broy./Diag. 0.10E+00    4.7     0.00000383     -1093.3700347531 -2.41E-04
    40 Broy./Diag. 0.10E+00    4.7     0.00000616     -1093.3708392150 -8.04E-04
    41 Broy./Diag. 0.10E+00    4.7     0.00000288     -1093.3715120542 -6.73E-04
    42 Broy./Diag. 0.10E+00    4.7     0.00000137     -1093.3716746584 -1.63E-04
    43 Broy./Diag. 0.10E+00    4.7     0.00000205     -1093.3719226511 -2.48E-04
    44 Broy./Diag. 0.10E+00    4.7     0.00000157     -1093.3719598264 -3.72E-05
    45 Broy./Diag. 0.10E+00    4.7     0.00000244     -1093.3717341716  2.26E-04
    46 Broy./Diag. 0.10E+00    4.7     0.00000180     -1093.3718615049 -1.27E-04
    47 Broy./Diag. 0.10E+00    4.7     0.00000213     -1093.3720717740 -2.10E-04
    48 Broy./Diag. 0.10E+00    4.7     0.00000137     -1093.3723505708 -2.79E-04
    49 Broy./Diag. 0.10E+00    4.7     0.00000067     -1093.3724308988 -8.03E-05
    50 Broy./Diag. 0.10E+00    4.7     0.00000139     -1093.3723877498  4.31E-05
    51 Broy./Diag. 0.10E+00    4.7     0.00000033     -1093.3723638877  2.39E-05
    52 Broy./Diag. 0.10E+00    4.7     0.00000074     -1093.3723723309 -8.44E-06
    53 Broy./Diag. 0.10E+00    4.7     0.00000060     -1093.3724101170 -3.78E-05
    54 Broy./Diag. 0.10E+00    4.7     0.00000044     -1093.3724625551 -5.24E-05
    55 Broy./Diag. 0.10E+00    4.7     0.00000084     -1093.3725861971 -1.24E-04
    56 Broy./Diag. 0.10E+00    4.7     0.00000057     -1093.3726459013 -5.97E-05
    57 Broy./Diag. 0.10E+00    4.7     0.00000098     -1093.3726492653 -3.36E-06
    58 Broy./Diag. 0.10E+00    4.7     0.00000034     -1093.3726440674  5.20E-06
    59 Broy./Diag. 0.10E+00    4.7     0.00000048     -1093.3726358454  8.22E-06
    60 Broy./Diag. 0.10E+00    4.7     0.00000036     -1093.3726621808 -2.63E-05
    61 Broy./Diag. 0.10E+00    4.7     0.00000012     -1093.3726836326 -2.15E-05

  *** SCF run converged in    61 steps ***


  Electronic density on regular grids:       -767.9999999964        0.0000000036
  Core density on regular grids:              767.9999999993       -0.0000000007
  Total charge density on r-space grids:        0.0000000029
  Total charge density g-space grids:           0.0000000029

  Overlap energy of the core charge distribution:               0.00002938601337
  Self energy of the core charge distribution:              -2560.32152193892080
  Core Hamiltonian energy:                                    800.57459257219284
  Hartree energy:                                            1001.69145577470670
  Exchange-correlation energy:                               -335.07084171367740
  Dispersion energy:                                           -0.24639750307811
  Electronic entropic energy:                                  -0.00000020979369
  Fermi energy:                                                -0.10934676301291

  Total energy:                                             -1093.37268363255703

  outer SCF iter =    1 RMS gradient =   0.12E-06 energy =      -1093.3726836326
  outer SCF loop converged in   1 iterations or   61 steps


 *** WARNING in qs_loc_utils.F:1500 :: User requested the calculation of ***
 *** the localized wavefunction but the section LOCALIZE was not         ***
 *** specified. Localization will not be performed!                      ***


 -------------------------------------------------------------------------------
 -                                                                             -
 -  BSSE CALCULATION         FRAGMENT CONF: 11        FRAGMENT SUBCONF: 01     -
 -                           CHARGE =     0           MULTIPLICITY =     0     -
 -                                                                             -
 -                 ATOM INDEX                              ATOM NAME           -
 -                 ----------                              ---------           -
 -                      1                                   C_ghost            -
 -                      2                                   C_ghost            -
 -                      3                                   C_ghost            -
 -                      4                                   C_ghost            -
 -                      5                                   C_ghost            -
 -                      6                                   C_ghost            -
 -                      7                                   C_ghost            -
 -                      8                                   C_ghost            -
 -                      9                                   C_ghost            -
 -                     10                                   C_ghost            -
 -                     11                                   C_ghost            -
 -                     12                                   C_ghost            -
 -                     13                                   C_ghost            -
 -                     14                                   C_ghost            -
 -                     15                                   C_ghost            -
 -                     16                                   C_ghost            -
 -                     17                                   C_ghost            -
 -                     18                                   C_ghost            -
 -                     19                                   C_ghost            -
 -                     20                                   C_ghost            -
 -                     21                                   C_ghost            -
 -                     22                                   C_ghost            -
 -                     23                                   C_ghost            -
 -                     24                                   C_ghost            -
 -                     25                                   C_ghost            -
 -                     26                                   C_ghost            -
 -                     27                                   C_ghost            -
 -                     28                                   C_ghost            -
 -                     29                                   C_ghost            -
 -                     30                                   C_ghost            -
 -                     31                                   C_ghost            -
 -                     32                                   C_ghost            -
 -                     33                                   C_ghost            -
 -                     34                                   C_ghost            -
 -                     35                                   C_ghost            -
 -                     36                                   C_ghost            -
 -                     37                                   C_ghost            -
 -                     38                                   C_ghost            -
 -                     39                                   C_ghost            -
 -                     40                                   C_ghost            -
 -                     41                                   C_ghost            -
 -                     42                                   C_ghost            -
 -                     43                                   C_ghost            -
 -                     44                                   C_ghost            -
 -                     45                                   C_ghost            -
 -                     46                                   C_ghost            -
 -                     47                                   C_ghost            -
 -                     48                                   C_ghost            -
 -                     49                                   C_ghost            -
 -                     50                                   C_ghost            -
 -                     51                                   C_ghost            -
 -                     52                                   C_ghost            -
 -                     53                                   C_ghost            -
[...]
    46 Broy./Diag. 0.10E+00    9.5     0.00000031     -1140.5890966526  9.89E-06
    47 Broy./Diag. 0.10E+00    9.3     0.00000063     -1140.5890313429  6.53E-05
    48 Broy./Diag. 0.10E+00    9.0     0.00000041     -1140.5889939533  3.74E-05
    49 Broy./Diag. 0.10E+00    9.0     0.00000040     -1140.5889630002  3.10E-05
    50 Broy./Diag. 0.10E+00    8.9     0.00000068     -1140.5889551437  7.86E-06
    51 Broy./Diag. 0.10E+00    8.6     0.00000037     -1140.5889576186 -2.47E-06
    52 Broy./Diag. 0.10E+00    8.5     0.00000036     -1140.5889710495 -1.34E-05
    53 Broy./Diag. 0.10E+00    8.6     0.00000013     -1140.5889744625 -3.41E-06

  *** SCF run converged in    53 steps ***


  Electronic density on regular grids:       -777.0004004166       -0.0004004166
  Core density on regular grids:              776.9999999993       -0.0000000007
  Total charge density on r-space grids:       -0.0004004172
  Total charge density g-space grids:          -0.0004004172

  Overlap energy of the core charge distribution:               0.00002938601337
  Self energy of the core charge distribution:              -2656.92801213334678
  Core Hamiltonian energy:                                    830.81712812945364
  Hartree energy:                                            1028.16699555440050
  Exchange-correlation energy:                               -342.39173430058196
  Dispersion energy:                                           -0.25124268929848
  Electronic entropic energy:                                  -0.00213840922098
  Fermi energy:                                                -0.09494037231091

  Total energy:                                             -1140.58897446254650

  outer SCF iter =    1 RMS gradient =   0.13E-06 energy =      -1140.5889744625
  outer SCF loop converged in   1 iterations or   53 steps


 *** WARNING in qs_loc_utils.F:1500 :: User requested the calculation of ***
 *** the localized wavefunction but the section LOCALIZE was not         ***
 *** specified. Localization will not be performed!                      ***


 -------------------------------------------------------------------------------
 -                                                                             -
 -                                 BSSE RESULTS                                -
 -                                                                             -
 -                 CP-corrected Total energy:    -1140.585644                  -
 -                                                                             -
 -                       1-body contribution:    -1093.370111                  -
 -                       1-body contribution:      -47.167176                  -
 -                                                                             -
 -                       2-body contribution:       -0.048358                  -
 -                 BSSE-free interaction energy:       -0.048358               -
 -------------------------------------------------------------------------------

 -------------------------------------------------------------------------------
 -                                                                             -
 -                                DBCSR STATISTICS                             -
 -                                                                             -
 -------------------------------------------------------------------------------
 COUNTER                                    TOTAL       BLAS       SMM       ACC
 flops     9 x     9 x     9                96228     100.0%      0.0%      0.0%
 flops     9 x     9 x    32               622080     100.0%      0.0%      0.0%
 flops     9 x     9 x   105               901530     100.0%      0.0%      0.0%
 flops     9 x     9 x   100               988200     100.0%      0.0%      0.0%
 flops     9 x    13 x     9              6570720     100.0%      0.0%      0.0%
 flops    13 x     9 x     9              6654960     100.0%      0.0%      0.0%
 flops     9 x     9 x   128              7091712     100.0%      0.0%      0.0%
 flops     9 x    13 x    32             70087680     100.0%      0.0%      0.0%
 flops    13 x     9 x    32             70986240     100.0%      0.0%      0.0%
 flops     9 x    13 x   105            101572380     100.0%      0.0%      0.0%
 flops    13 x     9 x   105            102874590     100.0%      0.0%      0.0%
 flops     9 x    13 x   100            111337200     100.0%      0.0%      0.0%
 flops    13 x     9 x   100            112764600     100.0%      0.0%      0.0%
 flops     9 x    13 x   128            798999552     100.0%      0.0%      0.0%
 flops    13 x     9 x   128            809243136     100.0%      0.0%      0.0%
 flops    13 x    13 x     9           1395304560     100.0%      0.0%      0.0%
 flops    13 x    13 x    32          14883248640     100.0%      0.0%      0.0%
 flops    13 x    13 x   105          21569082990     100.0%      0.0%      0.0%
 flops    13 x    13 x   100          43409475200     100.0%      0.0%      0.0%
 flops    13 x    13 x   128         245573602560     100.0%      0.0%      0.0%
 flops inhomo. stacks                           0       0.0%      0.0%      0.0%
 flops total                       329.031505E+09     100.0%      0.0%      0.0%
 flops max/rank                     21.559847E+09     100.0%      0.0%      0.0%
 matmuls inhomo. stacks                         0       0.0%      0.0%      0.0%
 matmuls total                            9500294     100.0%      0.0%      0.0%
 number of processed stacks                 18074     100.0%      0.0%      0.0%
 average stack size                                   525.6       0.0       0.0
 marketing flops                   807.483998E+09
 -------------------------------------------------------------------------------
 # multiplications                            231
 max memory usage/rank             885.051392E+06
 # max total images/rank                        1
 # max 3D layers                                1
 # MPI messages exchanged                   22176
 MPI messages size (bytes):
  total size                        10.128671E+09
  min size                           0.000000E+00
  max size                         648.192000E+03
  average size                     456.740188E+03
 MPI breakdown and total messages size (bytes):
             size <=      128                2340                        0
       128 < size <=     8192                 156                   101088
      8192 < size <=    32768                   0                        0
     32768 < size <=   131072                 960                 43286400
    131072 < size <=  4194304               18720              10085288112
   4194304 < size <= 16777216                   0                        0
  16777216 < size                               0                        0
 -------------------------------------------------------------------------------
 -                                                                             -
 -                      DBCSR MESSAGE PASSING PERFORMANCE                      -
 -                                                                             -
 -------------------------------------------------------------------------------
 ROUTINE             CALLS      AVE VOLUME [Bytes]
 MP_Bcast               21                     12.
 MP_Allreduce         1681                      9.
 MP_Alltoall          6528                 487181.
 MP_ISend             3696                 184371.
 MP_IRecv             3696                 169963.
 -------------------------------------------------------------------------------

 -------------------------------------------------------------------------------
 -                                                                             -
 -                                DBM STATISTICS                               -
 -                                                                             -
 -------------------------------------------------------------------------------
    M  x    N  x    K                                          COUNT     PERCENT
 -------------------------------------------------------------------------------

 -------------------------------------------------------------------------------
 -                                                                             -
 -                                GRID STATISTICS                              -
 -                                                                             -
 -------------------------------------------------------------------------------
 LP    KERNEL             BACKEND                              COUNT     PERCENT
 4     collocate ortho    REF                               24073038      49.87%
 4     integrate ortho    REF                               23612310      48.91%
 3     collocate ortho    REF                                 283071       0.59%
 3     integrate ortho    REF                                 277662       0.58%
 2     collocate ortho    REF                                   9384       0.02%
 0     collocate general  REF                                   9264       0.02%
 2     integrate ortho    REF                                   9180       0.02%
 -------------------------------------------------------------------------------

 MEMORY| Estimated peak process memory [MiB]                                 845

 -------------------------------------------------------------------------------
 -                                                                             -
 -                         MESSAGE PASSING PERFORMANCE                         -
 -                                                                             -
 -------------------------------------------------------------------------------

 ROUTINE             CALLS      AVE VOLUME [Bytes]
 MP_Group               24
 MP_Bcast              615                1570946.
 MP_Allreduce         3218                   1509.
 MP_Sync               281
 MP_Alltoall          3103               23501102.
 MP_SendRecv          9852                 213429.
 MP_ISendRecv         6930                 161680.
 MP_Wait             17259
 MP_comm_split          26
 MP_ISend             7512                1392722.
 MP_IRecv             7512                1392702.
 MP_Recv               160                 620848.
 -------------------------------------------------------------------------------


 -------------------------------------------------------------------------------
 -                                                                             -
 -                           R E F E R E N C E S                               -
 -                                                                             -
 -------------------------------------------------------------------------------
 
 CP2K version 2023.1, the CP2K developers group (2023).
 CP2K is freely available from https://www.cp2k.org/ .

 Kuehne,Thomas D.; Iannuzzi,Marcella; Del Ben,Mauro;
 Rybkin,Vladimir V.; Seewald,Patrick; Stein,Frederick; Laino,Teodoro;
 Khaliullin,Rustam Z.; Schuett,Ole; Schiffmann,Florian; Golze,Dorothea;
 Wilhelm,Jan; Chulkov,Sergey; Bani-Hashemian,Mohammad Hossein;
 Weber,Valery; Borstnik,Urban; Taillefumier,Mathieu;
 Jakobovits,Alice Shoshana; Lazzaro,Alfio; Pabst,Hans; Mueller,Tiziano;
 Schade,Robert; Guidon,Manuel; Andermatt,Samuel; Holmberg,Nico;
 Schenter,Gregory K.; Hehn,Anna; Bussy,Augustin; Belleflamme,Fabian;
 Tabacchi,Gloria; Gloess,Andreas; Lass,Michael; Bethune,Iain;
 Mundy,Christopher J.; Plessl,Christian; Watkins,Matt;
 VandeVondele,Joost; Krack,Matthias; Hutter,Juerg. 
 The Journal of Chemical Physics, 152 (19), (2020). 
 CP2K: An electronic structure and molecular dynamics software package -
 Quickstep: Efficient and accurate electronic structure calculations.
 https://doi.org/10.1063/5.0007045

 Goerigk, Lars; Hansen, Andreas; Bauer, Christoph; Ehrlich, Stephan;
 Najibi, Asim; Grimme, Stefan. , 19 (48), (2017). 
 A look at the density functional theory zoo with the advanced GMTKN55 database
 for general main group thermochemistry, kinetics and noncovalent interactions.
 https://doi.org/10.1039/C7CP04913G

 Schuett, Ole; Messmer, Peter; Hutter, Juerg; VandeVondele, Joost. 
 Electronic Structure Calculations on Graphics Processing Units, John
 Wiley & Sons, Ltd, 173-190 (2016). 
 GPU-Accelerated Sparse Matrix-Matrix Multiplication for
 Linear Scaling Density Functional Theory.
 https://doi.org/10.1002/9781118670712.ch8

 Borstnik, U; VandeVondele, J; Weber, V; Hutter, J. 
 PARALLEL COMPUTING, 40 (5-6), 47-58 (2014). 
 Sparse matrix multiplication: The distributed block-compressed sparse
 row library.
 https://doi.org/10.1016/j.parco.2014.03.012

 Hutter, J; Iannuzzi, M; Schiffmann, F; VandeVondele, J. 
 WIREs Comput Mol Sci., 4 (1), 15-25 (2014). 
 CP2K: atomistic simulations of condensed matter systems.
 https://doi.org/10.1002/wcms.1159

 Marek, A; Blum, V; Johanni, R; Havu, V; Lang, B; Auckenthaler, T;
 Heinecke, A; Bungartz, H; Lederer, H. 
 Journal of Physics: Condensed Matter, 26 (21), (2014). 
 The ELPA library: scalable parallel eigenvalue solutions for
 electronic structure
 theory and computational science.
 https://doi.org/10.1088/0953-8984/26/21/213201

 Grimme, S; Ehrlich, S; Goerigk, L. 
 JOURNAL OF COMPUTATIONAL CHEMISTRY, 32, 1456 (2011). 
 Effect of the damping function in dispersion corrected density functional theory.
 https://doi.org/10.1002/jcc.21759

 Grimme, S; Antony, J; Ehrlich, S; Krieg, H. 
 JOURNAL OF CHEMICAL PHYSICS, 132 (15), 154104 (2010). 
 A consistent and accurate ab initio parametrization of density
 functional dispersion correction (DFT-D) for the 94 elements H-Pu.
 https://doi.org/10.1063/1.3382344

 VandeVondele, J; Hutter, J. 
 JOURNAL OF CHEMICAL PHYSICS, 127 (11), 114105 (2007). 
 Gaussian basis sets for accurate calculations on molecular systems in
 gas and condensed phases.
 https://doi.org/10.1063/1.2770708

 Krack, M. 
 THEORETICAL CHEMISTRY ACCOUNTS, 114 (1-3), 145-152 (2005). 
 Pseudopotentials for H to Kr optimized for gradient-corrected
 exchange-correlation functionals.
 https://doi.org/10.1007/s00214-005-0655-y

 VandeVondele, J; Krack, M; Mohamed, F; Parrinello, M; Chassaing, T;
 Hutter, J. COMPUTER PHYSICS COMMUNICATIONS, 167 (2), 103-128 (2005). 
 QUICKSTEP: Fast and accurate density functional calculations using a
 mixed Gaussian and plane waves approach.
 https://doi.org/10.1016/j.cpc.2004.12.014

 Frigo, M; Johnson, SG. 
 PROCEEDINGS OF THE IEEE, 93 (2), 216-231 (2005). 
 The design and implementation of FFTW3.
 https://doi.org/10.1109/JPROC.2004.840301

 Hartwigsen, C; Goedecker, S; Hutter, J. 
 PHYSICAL REVIEW B, 58 (7), 3641-3662 (1998). 
 Relativistic separable dual-space Gaussian pseudopotentials from H to Rn.
 https://doi.org/10.1103/PhysRevB.58.3641

 Lippert, G; Hutter, J; Parrinello, M. 
 MOLECULAR PHYSICS, 92 (3), 477-487 (1997). 
 A hybrid Gaussian and plane wave density functional scheme.
 https://doi.org/10.1080/002689797170220

 Perdew, JP; Burke, K; Ernzerhof, M. 
 PHYSICAL REVIEW LETTERS, 77 (18), 3865-3868 (1996). 
 Generalized gradient approximation made simple.
 https://doi.org/10.1103/PhysRevLett.77.3865

 Goedecker, S; Teter, M; Hutter, J. 
 PHYSICAL REVIEW B, 54 (3), 1703-1710 (1996). 
 Separable dual-space Gaussian pseudopotentials.
 https://doi.org/10.1103/PhysRevB.54.1703


 -------------------------------------------------------------------------------
 -                                                                             -
 -                                T I M I N G                                  -
 -                                                                             -
 -------------------------------------------------------------------------------
 SUBROUTINE                       CALLS  ASD         SELF TIME        TOTAL TIME
                                MAXIMUM       AVERAGE  MAXIMUM  AVERAGE  MAXIMUM
 CP2K                                 1  1.0    0.026    0.035 1245.258 1245.260
 qs_energies                          5  2.0    0.001    0.001 1242.916 1243.210
 scf_env_do_scf                       5  3.0    0.001    0.002 1233.941 1234.236
 scf_env_do_scf_inner_loop          231  4.0    0.010    0.028 1233.940 1234.234
 qs_scf_new_mos                     231  5.0    0.005    0.006  523.987  524.298
 eigensolver                        231  6.0    0.026    0.041  511.794  512.021
 qs_ks_update_qs_env                231  5.0    0.002    0.002  330.581  330.637
 rebuild_ks_matrix                  231  6.0    0.001    0.001  330.252  330.307
 qs_ks_build_kohn_sham_matrix       231  7.0    0.046    0.052  330.251  330.306
 cp_fm_diag_elpa                    205  7.0    0.003    0.003  318.366  318.413
 cp_fm_diag_elpa_base               205  8.0  316.418  316.971  318.260  318.261
 qs_rho_update_rho_low              236  5.0    0.002    0.002  255.454  255.547
 calculate_rho_elec                 236  6.0    0.758    0.817  255.452  255.545
 density_rs2pw                      236  7.0    0.019    0.020  162.356  217.071
 sum_up_and_integrate               231  8.0    2.738    2.970  213.845  213.917
 integrate_v_rspace                 231  9.0    0.011    0.013  211.106  211.284
 pw_transfer                       3028  8.9    0.380    0.453  196.762  200.599
 fft_wrap_pw1pw2                   2566  9.9    0.042    0.048  191.747  195.763
 cp_fm_triangular_multiply          693  7.0  191.913  192.622  191.913  192.622
 fft_wrap_pw1pw2_150               1165 10.2   15.853   16.930  176.134  181.732
 grid_collocate_task_list           236  7.0   89.888  157.221   89.888  157.221
 rs_pw_transfer                    1873  9.5    0.040    0.045   95.467  149.259
 grid_integrate_task_list           231 10.0   78.736  148.090   78.736  148.090
 fft3d_ps                          2566 11.9   78.778   83.245  137.162  141.405
 gspace_mixing                      226  5.0    0.712    0.760  127.848  127.848
 mp_waitany                        7512 11.5   74.449  127.764   74.449  127.764
 rs_pw_transfer_RS2PW_150           241  9.0    3.943    5.052   71.373  127.097
 mp_alltoall_d11v                  3269  9.3   71.537  121.663   71.537  121.663
 rs_gather_matrices                 231 10.0    0.277    0.322   69.860  119.980
 broyden_mixing                     226  6.0   92.339   94.689   94.473   95.371
 qs_vxc_create                      231  8.0    0.010    0.011   64.905   67.420
 xc_vxc_pw_create                   231  9.0    2.678    3.124   64.895   67.409
 potential_pw2rs                    231 10.0    0.057    0.065   62.500   62.641
 xc_rho_set_and_dset_create         231 10.0    3.745    4.668   48.037   50.545
 x_to_yz                           1386 13.2   21.686   23.243   33.639   37.383
 xc_functional_eval                 231 11.0    0.006    0.008   31.902   33.671
 pbe_lda_eval                       231 12.0   31.896   33.666   31.896   33.666
 mp_alltoall_z22v                  2566 13.9   20.923   29.129   20.923   29.129
 yz_to_x                           1180 12.6   15.693   17.717   24.663   27.682
 -------------------------------------------------------------------------------

 The number of warnings for this run is : 6
 
 -------------------------------------------------------------------------------
  **** **** ******  **  PROGRAM ENDED AT                 2025-06-19 14:25:28.050
 ***** ** ***  *** **   PROGRAM RAN ON                                sebnode132
 **    ****   ******    PROGRAM RAN BY                                    luehrs
 ***** **    ** ** **   PROGRAM PROCESS ID                               1830302
  **** **  *******  **  PROGRAM STOPPED IN /home/luehrs/PhD/Sodium_batteries/Sod
                                           ium-graphene-curvature/Sinus_surface/
                                           Sinus_9
