     193
 i =       41, E =     -1140.4823807194
  C        -0.0237469914        0.0026344156       -0.0980043291
  C        16.1729434788        2.8659432632       -2.1611927656
  C        15.4818795077        2.1527938312       -1.1406622138
  C        16.9243352056        2.1527875543       -3.1377789726
  C        17.7698496581        2.8658047011       -4.0352008482
  C        18.7261048962        2.1516994115       -4.8124885925
  C        19.7970405882        2.8635219713       -5.4275231597
  C        20.9687114976        2.1496248645       -5.8140713725
  C        23.4219773006        2.1503862402       -5.8068343452
  C        22.1954633134        2.8619766716       -5.9542222908
  C        26.6215420075        2.8660772577       -4.0267537844
  C        24.5915203787        2.8644796980       -5.4147024692
  C        25.6633920903        2.1522145909       -4.8020548288
  C        28.9188462770        2.1528218496       -1.1398284593
  C        27.4704554729        2.1528844252       -3.1325817145
  C        28.2254012290        2.8659829183       -2.1586786891
  C        28.9194274355        0.7158228868       -1.1402739911
  C        17.7676585487       11.4662535159       -4.0349096867
  C        16.1709345538       11.4657578375       -2.1621439430
  C        14.8254773898       11.4657097588       -0.0980878333
  C        13.4851473891       11.4657461571        1.9681888287
  C        11.8650674346       11.4658566377        3.8207547770
  C        10.8913731667       10.7520391600        4.5754829732
  C         9.8033443210       11.4660400243        5.1543853144
  C         8.6259765733       10.7518408903        5.5191945720
  C         7.4000787368       11.4661046685        5.6427968427
  C         6.1741354105       10.7518454839        5.5197781989
  C         4.9966177725       11.4660458984        5.1554489949
  C         3.9083870287       10.7520327161        4.5769969446
  C        16.9234549141       10.7527072287       -3.1378339532
  C        15.4812954532       10.7526709315       -1.1409800320
  C        14.1721986999       10.7525091433        0.9459698887
  C        12.7247246447       10.7523715553        2.9375364598
  C        16.9256401067        9.3159778452       -3.1368485440
  C        16.1736669844        8.6026331021       -2.1607341943
  C        15.4823196263        9.3156888667       -1.1403242380
  C        14.8262113249        8.6024845908       -0.0975845600
  C        14.1726143794        9.3156957507        0.9463903385
  C        13.4858253516        8.6023894404        1.9688255222
  C        12.7253495972        9.3157552258        2.9382181982
  C        11.8659842397        8.6022245478        3.8217304071
  C        10.8916310017        9.3160238426        4.5757676297
  C         9.8035695850        8.6018976568        5.1544808278
  C         8.6260224884        9.3160840819        5.5189747418
  C         7.4001138365        8.6017877758        5.6423667296
  C         6.1741498746        9.3160813350        5.5195515462
  C         4.9964847343        8.6018919520        5.1554941324
  C         3.9082023894        9.3160278019        4.5772424288
  C         2.9338575919        8.6022513645        3.8232376644
  C         2.9334844255        7.1659167217        3.8236509343
  C         3.9078261133        6.4520732435        4.5776113096
  C         4.9964144779        7.1660653250        5.1554773052
  C         6.1741357160        6.4519074957        5.5192820264
  C         7.4000972719        7.1661507920        5.6422744404
  C         8.6260074257        6.4519095933        5.5187032186
  C         9.8036040904        7.1660571700        5.1544371457
  C        10.8920562689        6.4520576109        4.5762639504
  C        11.8663583120        7.1658814424        3.8221851240
  C        12.7260813719        6.4524081574        2.9389302530
  C        13.4861627510        7.1657673894        1.9691929566
  C        14.1729522234        6.4525675081        0.9466765705
  C        14.8269017144        7.1657483422       -0.0971055644
  C        15.4841217717        6.4526795517       -1.1393659451
  C        16.1751450488        7.1658500225       -2.1599502823
  C        15.4839937843        5.0158860065       -1.1394529505
  C        14.8268912257        4.3026517195       -0.0971482836
  C        14.1730022529        5.0158194175        0.9466676130
  C        13.4858655317        4.3024473897        1.9689024175
  C        12.7259067049        5.0157773042        2.9387375186
  C        11.8659618304        4.3021955471        3.8217396849
  C        10.8919562806        5.0160039494        4.5761664839
  C         9.8035297639        4.3019273056        5.1544088956
  C         8.6260376543        5.0161490571        5.5188687589
  C         7.4000957283        4.3018482368        5.6421836022
  C         6.1741106881        5.0161396641        5.5194491674
  C         4.9964618693        4.3019278642        5.1554616599
  C         3.9078611034        5.0160266447        4.5776338508
  C         2.9337125596        4.3022042354        3.8234516019
  C         2.0740694166        5.0158028047        2.9402028978
  C         2.0738389649        6.4524347275        2.9403843231
  C         1.3147984290        4.3024535079        1.9698573895
  C         1.3155022291        2.8658080950        1.9692015280
  C         2.0754244145        2.1523873455        2.9389519396
  C         2.9341633892        2.8658586268        3.8230113486
  C         3.9083163956        2.1520069104        4.5771924069
  C         4.9965154272        2.8660806326        5.1555776244
  C         6.1741586954        2.1518907512        5.5196679100
  C         7.4000928506        2.8661811991        5.6426420981
  C         8.6259562591        2.1518812067        5.5190541293
  C         9.8034615939        2.8660711760        5.1544798287
  C        10.8913231020        2.1519993844        4.5754442013
  C        11.8654431827        2.8658513268        3.8211875707
  C        12.7246141799        2.1523886750        2.9375322395
  C        13.4854854179        2.8658195641        1.9685179280
  C        14.1724010350        2.1526310976        0.9461721720
  C        14.8262119301        2.8658899718       -0.0976390563
  C        14.1722356683        0.7157997673        0.9459414734
  C        13.4848971946        0.0024134781        1.9679522177
  C        12.7242922201        0.7157671100        2.9371482100
  C        11.8648758265        0.0021732310        3.8205418922
  C        10.8911566037        0.7159821358        4.5752393771
  C         9.8032776229        0.0018672910        5.1543126126
  C         8.6259661838        0.7160980218        5.5193470628
  C         7.4000738764        0.0017743289        5.6428472909
  C         6.1741403645        0.7161007505        5.5198365073
  C         4.9966062589        0.0018668124        5.1555460826
  C         2.9348162766        0.0021680052        3.8222179673
  C         3.9084925223        0.7159882829        4.5769338701
  C         2.0756667574        0.7157789164        2.9385932533
  C         1.3159393220        0.0024380821        1.9686817820
  C         0.6295764306        0.7158223426        0.9460389455
  C         0.6294561277        2.1526356503        0.9462822497
  C        27.4720819603        0.7161151769       -3.1333921924
  C        29.5761393180        2.8658830157       -0.0977791877
  C        26.6255099702        0.0027112943       -4.0286933378
  C        16.1746374970        4.3027680225       -2.1602854877
  C        28.2277288631        0.0028252804       -2.1601875286
  C        24.5921755798        0.0024974935       -5.4083942482
  C        25.6648415120        0.7158917159       -4.8014635388
  C        23.4218485813        0.7153354614       -5.7989480514
  C        22.1964770454        0.0020887026       -5.9322453933
  C        20.9700933389        0.7149617769       -5.8043931531
  C        19.7988307908        0.0023238679       -5.4170499317
  C        17.7672499519        0.0025698156       -4.0351606030
  C        18.7258012251        0.7155763953       -4.8103361840
  C        16.1704726748        0.0027488247       -2.1624733219
  C        15.4811708126        0.7157830779       -1.1410896325
  C        16.9228510912        0.7160276846       -3.1382021792
  C        32.5346324663       11.4658665315        3.8223835045
  C        30.9156263910       11.4657750689        1.9689107380
  C        29.5761640131       11.4657731177       -0.0979478852
  C        28.2277284152       11.4658554325       -2.1602108205
  C        26.6250667120       11.4662120763       -4.0283782756
  C        25.6639762257       10.7533931368       -4.8009717700
  C        24.5918872270       11.4670643134       -5.4084279458
  C        23.4216521954       10.7546247196       -5.8001554046
  C        22.1964125823       11.4679502847       -5.9336441651
  C        20.9699518974       10.7550058648       -5.8061310395
  C        19.7989063141       11.4672246068       -5.4173747329
  C        18.7262331980       10.7536788320       -4.8104271205
  C        31.6752937758       10.7523984792        2.9388712152
  C        30.2290630678       10.7525623204        0.9463752434
  C        28.9195544090       10.7527773875       -1.1403721441
  C        27.4720844224       10.7527901760       -3.1334709243
  C        31.6747604038        9.3157988332        2.9394880824
  C        30.9146901223        8.6024483074        1.9697900844
  C        30.2288492706        9.3157653575        0.9467349485
  C        29.5757917118        8.6025840141       -0.0975258107
  C        28.9189371354        9.3158005705       -1.1398420466
  C        28.2256890543        8.6027359478       -2.1588889259
  C        27.4700246842        9.3160576050       -3.1322211143
  C        26.6206524230        8.6030184471       -4.0261958581
  C        25.6623607954        9.3171237962       -4.8015451713
  C        24.5911854437        8.6052933111       -5.4162613927
  C        23.4220035532        9.3195530154       -5.8105807571
  C        22.1952537525        8.6082848004       -5.9632584769
  C        20.9680439165        9.3203379169       -5.8190343841
  C        19.7964825934        8.6061794132       -5.4307919212
  C        18.7267063623        9.3175294477       -4.8128073338
  C        17.7708877636        8.6031134901       -4.0347589086
  C        17.7721691227        7.1666381950       -4.0349383174
  C        18.7244630867        6.4536249720       -4.8218138409
  C        19.7909650777        7.1693476329       -5.4453613832
  C        20.9570011887        6.4562389316       -5.8696678855
  C        22.1940412862        7.1715260646       -5.9922341389
  C        23.4259824511        6.4557878973       -5.8418384418
  C        24.5925656633        7.1687855976       -5.4227171283
  C        25.6595898404        6.4533340049       -4.8023112580
  C        26.6183115667        7.1665494129       -4.0245526254
  C        27.4666387954        6.4527816030       -3.1298694592
  C        28.2247657967        7.1659662943       -2.1581185221
  C        28.9181061743        6.4527567975       -1.1391745074
  C        29.5754246097        7.1658481514       -0.0971182949
  C        30.2285205175        6.4526071926        0.9471200739
  C        30.9144037996        7.1658107146        1.9701493648
  C        30.2288439609        5.0158405942        0.9469169447
  C        29.5756583210        4.3026414920       -0.0972659637
  C        28.9181137326        5.0159142045       -1.1391584805
  C        28.2246629470        4.3027807635       -2.1580292285
  C        27.4668418707        5.0162836962       -3.1298969275
  C        26.6192730418        4.3026095427       -4.0251834690
  C        25.6601322578        5.0160364167       -4.8023089236
  C        24.5924033853        4.3008226606       -5.4204047207
  C        23.4252807974        5.0138421589       -5.8364394283
  C        22.1942443578        4.2983035090       -5.9802756586
  C        20.9585715117        5.0132097664       -5.8615804996
  C        19.7920558128        4.3000088359       -5.4410647246
  C        18.7242464109        5.0154932945       -4.8211467208
  C        17.7711361923        4.3023239624       -4.0354213424
  C        16.9283858246        5.0161853020       -3.1357299083
  C        16.9290605562        6.4527358976       -3.1353473796
  C        14.8253367242        0.0026028689       -0.0982105098
 Na        22.0613433908        5.8765628970       -3.6086224477
