 DBCSR| CPU Multiplication driver                                           BLAS (U)
 DBCSR| Multrec recursion limit                                              512 (U)
 DBCSR| Multiplication stack size                                           1000 (D)
 DBCSR| Maximum elements for images                                    UNLIMITED (U)
 DBCSR| Multiplicative factor virtual images                                   1 (U)
 DBCSR| Use multiplication densification                                       T (D)
 DBCSR| Multiplication size stacks                                             3 (U)
 DBCSR| Use memory pool for CPU allocation                                     F (U)
 DBCSR| Number of 3D layers                                               SINGLE (U)
 DBCSR| Use MPI memory allocation                                              F (U)
 DBCSR| Use RMA algorithm                                                      F (U)
 DBCSR| Use Communication thread                                               T (U)
 DBCSR| Communication thread load                                             87 (D)
 DBCSR| MPI: My process id                                                     0
 DBCSR| MPI: Number of processes                                              16
 DBCSR| OMP: Current number of threads                                         1
 DBCSR| OMP: Max number of threads                                             1
 DBCSR| Split modifier for TAS multiplication algorithm                  1.0E+00 (U)


  **** **** ******  **  PROGRAM STARTED AT               2025-07-10 13:48:41.885
 ***** ** ***  *** **   PROGRAM STARTED ON                            sebnode130
 **    ****   ******    PROGRAM STARTED BY                                luehrs
 ***** **    ** ** **   PROGRAM PROCESS ID                               1119611
  **** **  *******  **  PROGRAM STARTED IN /home/luehrs/PhD/Sodium_batteries/Sod
                                           ium-graphene-surface/Zig-Zag_3

 CP2K| version string:                                       CP2K version 2023.1
 CP2K| source code revision number:                                  git:b888bd8
 CP2K| cp2kflags: omp libint fftw3 libxc elpa parallel scalapack spglib         
 CP2K| is freely available from                            https://www.cp2k.org/
 CP2K| Program compiled at                          Tue Jan 10 19:52:03 UTC 2023
 CP2K| Program compiled on                                            x86-ubc-01
 CP2K| Program compiled for                                Linux-x86_64-gfortran
 CP2K| Data directory path                                       /usr/share/cp2k
 CP2K| Input file name                                         input.zig-zag.inp

 GLOBAL| Force Environment number                                              1
 GLOBAL| Basis set file name                                      ./BASIS_MOLOPT
 GLOBAL| Potential file name                                    ./GTH_POTENTIALS
 GLOBAL| MM Potential file name                                     MM_POTENTIAL
 GLOBAL| Coordinate file name           graphene_zig-zag_no-hydrogen_PBE_relaxed
 GLOBAL| Method name                                                        CP2K
 GLOBAL| Project name                                          graphene_BSSE_PBE
 GLOBAL| Run type                                                           BSSE
 GLOBAL| FFT library                                                       FFTW3
 GLOBAL| Diagonalization library                                            ELPA
 GLOBAL| DGEMM library                                                      BLAS
 GLOBAL| Minimum number of eigenvectors for ELPA usage                        16
 GLOBAL| Orthonormality check for eigenvectors                          DISABLED
 GLOBAL| Matrix multiplication library                                 ScaLAPACK
 GLOBAL| All-to-all communication in single precision                          F
 GLOBAL| FFTs using library dependent lengths                                  F
 GLOBAL| Grid backend                                                       AUTO
 GLOBAL| Global print level                                                  LOW
 GLOBAL| MPI I/O enabled                                                       T
 GLOBAL| Total number of message passing processes                            16
 GLOBAL| Number of threads for this process                                    1
 GLOBAL| This output is from process                                           0
 GLOBAL| Stack size for threads created by OpenMP (OMP_STACKSIZE)        default
 GLOBAL| CPU model name                          AMD EPYC 7513 32-Core Processor

 MEMORY| system memory details [Kb]
 MEMORY|                        rank 0           min           max       average
 MEMORY| MemTotal            131832644     131832644     131832644     131832644
 MEMORY| MemFree             100952216     100952216     100952216     100952216
 MEMORY| Buffers                161228        161228        161228        161228
 MEMORY| Cached                 363984        363984        363988        363984
 MEMORY| Slab                   842688        842688        842688        842688
 MEMORY| SReclaimable           155300        155300        155300        155300
 MEMORY| MemLikelyFree       101632728     101632728     101632732     101632728


 GENERATE|  Preliminary Number of Bonds generated:                             0
 GENERATE|  Achieved consistency in connectivity generation.

 *******************************************************************************
 *******************************************************************************
 **                                                                           **
 **     #####                         ##              ##                      **
 **    ##   ##            ##          ##              ##                      **
 **   ##     ##                       ##            ######                    **
 **   ##     ##  ##   ##  ##   #####  ##  ##   ####   ##    #####    #####    **
 **   ##     ##  ##   ##  ##  ##      ## ##   ##      ##   ##   ##  ##   ##   **
 **   ##  ## ##  ##   ##  ##  ##      ####     ###    ##   ######   ######    **
 **    ##  ###   ##   ##  ##  ##      ## ##      ##   ##   ##       ##        **
 **     #######   #####   ##   #####  ##  ##  ####    ##    #####   ##        **
 **           ##                                                    ##        **
 **                                                                           **
 **                                                ... make the atoms dance   **
 **                                                                           **
 **            Copyright (C) by CP2K developers group (2000-2022)             **
 **                      J. Chem. Phys. 152, 194103 (2020)                    **
 **                                                                           **
 *******************************************************************************


 TOTAL NUMBERS AND MAXIMUM NUMBERS

  Total number of            - Atomic kinds:                                   2
                             - Atoms:                                        113
                             - Shell sets:                                   113
                             - Shells:                                       565
                             - Primitive Cartesian functions:                567
                             - Cartesian basis functions:                   1577
                             - Spherical basis functions:                   1465

  Maximum angular momentum of- Orbital basis functions:                        2
                             - Local part of the GTH pseudopotential:          2
                             - Non-local part of the GTH pseudopotential:      1


 SCF PARAMETERS         Density guess:                                    ATOMIC
                        --------------------------------------------------------
                        max_scf:                                             100
                        max_scf_history:                                       0
                        max_diis:                                              4
                        --------------------------------------------------------
                        eps_scf:                                        3.00E-07
                        eps_scf_history:                                0.00E+00
                        eps_diis:                                       1.00E-01
                        eps_eigval:                                     1.00E-05
                        --------------------------------------------------------
                        level_shift [a.u.]:                             0.000000
                        added MOs                                       100  100
                        --------------------------------------------------------
                        Mixing method:                            BROYDEN_MIXING
                                                charge density mixing in g-space
                        --------------------------------------------------------
                        Smear method:                                FERMI_DIRAC
                        Electronic temperature [K]:                        300.0
                        Electronic temperature [a.u.]:                  9.50E-04
                        Accuracy threshold:                             1.00E-10
                        --------------------------------------------------------
                        Outer loop SCF in use 
                        No variables optimised in outer loop
                        eps_scf                                         1.00E-06
                        max_scf                                               30
                        DIIS optimization
                        DIIS buffer length                                     3
                        step_size                                       5.00E-01

 -------------------------------------------------------------------------------
 -                                                                             -
 -  BSSE CALCULATION         FRAGMENT CONF: 10        FRAGMENT SUBCONF: 10     -
 -                           CHARGE =     0           MULTIPLICITY =     0     -
 -                                                                             -
 -                 ATOM INDEX                              ATOM NAME           -
 -                 ----------                              ---------           -
 -                      1                                   C                  -
 -                      2                                   C                  -
 -                      3                                   C                  -
 -                      4                                   C                  -
 -                      5                                   C                  -
 -                      6                                   C                  -
 -                      7                                   C                  -
 -                      8                                   C                  -
 -                      9                                   C                  -
 -                     10                                   C                  -
 -                     11                                   C                  -
 -                     12                                   C                  -
 -                     13                                   C                  -
 -                     14                                   C                  -
 -                     15                                   C                  -
 -                     16                                   C                  -
 -                     17                                   C                  -
 -                     18                                   C                  -
 -                     19                                   C                  -
 -                     20                                   C                  -
 -                     21                                   C                  -
 -                     22                                   C                  -
 -                     23                                   C                  -
 -                     24                                   C                  -
 -                     25                                   C                  -
 -                     26                                   C                  -
 -                     27                                   C                  -
 -                     28                                   C                  -
 -                     29                                   C                  -
 -                     30                                   C                  -
 -                     31                                   C                  -
 -                     32                                   C                  -
 -                     33                                   C                  -
 -                     34                                   C                  -
 -                     35                                   C                  -
 -                     36                                   C                  -
 -                     37                                   C                  -
 -                     38                                   C                  -
 -                     39                                   C                  -
 -                     40                                   C                  -
 -                     41                                   C                  -
 -                     42                                   C                  -
 -                     43                                   C                  -
 -                     44                                   C                  -
 -                     45                                   C                  -
 -                     46                                   C                  -
 -                     47                                   C                  -
 -                     48                                   C                  -
 -                     49                                   C                  -
 -                     50                                   C                  -
 -                     51                                   C                  -
 -                     52                                   C                  -
 -                     53                                   C                  -
 -                     54                                   C                  -
 -                     55                                   C                  -
 -                     56                                   C                  -
 -                     57                                   C                  -
 -                     58                                   C                  -
 -                     59                                   C                  -
 -                     60                                   C                  -
 -                     61                                   C                  -
 -                     62                                   C                  -
 -                     63                                   C                  -
 -                     64                                   C                  -
 -                     65                                   C                  -
 -                     66                                   C                  -
 -                     67                                   C                  -
 -                     68                                   C                  -
 -                     69                                   C                  -
 -                     70                                   C                  -
 -                     71                                   C                  -
 -                     72                                   C                  -
 -                     73                                   C                  -
 -                     74                                   C                  -
 -                     75                                   C                  -
 -                     76                                   C                  -
 -                     77                                   C                  -
 -                     78                                   C                  -
 -                     79                                   C                  -
 -                     80                                   C                  -
 -                     81                                   C                  -
 -                     82                                   C                  -
 -                     83                                   C                  -
 -                     84                                   C                  -
 -                     85                                   C                  -
 -                     86                                   C                  -
 -                     87                                   C                  -
 -                     88                                   C                  -
 -                     89                                   C                  -
 -                     90                                   C                  -
 -                     91                                   C                  -
 -                     92                                   C                  -
 -                     93                                   C                  -
 -                     94                                   C                  -
 -                     95                                   C                  -
 -                     96                                   C                  -
 -                     97                                   C                  -
 -                     98                                   C                  -
 -                     99                                   C                  -
 -                    100                                   C                  -
 -                    101                                   C                  -
 -                    102                                   C                  -
 -                    103                                   C                  -
 -                    104                                   C                  -
 -                    105                                   C                  -
 -                    106                                   C                  -
 -                    107                                   C                  -
 -                    108                                   C                  -
 -                    109                                   C                  -
 -                    110                                   C                  -
 -                    111                                   C                  -
 -                    112                                   C                  -
 -------------------------------------------------------------------------------

 *******************************************************************************
 *******************************************************************************
 **                                                                           **
 **     #####                         ##              ##                      **
 **    ##   ##            ##          ##              ##                      **
 **   ##     ##                       ##            ######                    **
 **   ##     ##  ##   ##  ##   #####  ##  ##   ####   ##    #####    #####    **
 **   ##     ##  ##   ##  ##  ##      ## ##   ##      ##   ##   ##  ##   ##   **
 **   ##  ## ##  ##   ##  ##  ##      ####     ###    ##   ######   ######    **
 **    ##  ###   ##   ##  ##  ##      ## ##      ##   ##   ##       ##        **
 **     #######   #####   ##   #####  ##  ##  ####    ##    #####   ##        **
 **           ##                                                    ##        **
 **                                                                           **
 **                                                ... make the atoms dance   **
 **                                                                           **
 **            Copyright (C) by CP2K developers group (2000-2022)             **
 **                      J. Chem. Phys. 152, 194103 (2020)                    **
 **                                                                           **
 *******************************************************************************


 TOTAL NUMBERS AND MAXIMUM NUMBERS

  Total number of            - Atomic kinds:                                   1
                             - Atoms:                                        112
                             - Shell sets:                                   112
                             - Shells:                                       560
                             - Primitive Cartesian functions:                560
                             - Cartesian basis functions:                   1568
                             - Spherical basis functions:                   1456

  Maximum angular momentum of- Orbital basis functions:                        2
                             - Local part of the GTH pseudopotential:          2
                             - Non-local part of the GTH pseudopotential:      0


 SCF PARAMETERS         Density guess:                                    ATOMIC
                        --------------------------------------------------------
                        max_scf:                                             100
                        max_scf_history:                                       0
                        max_diis:                                              4
                        --------------------------------------------------------
                        eps_scf:                                        3.00E-07
                        eps_scf_history:                                0.00E+00
                        eps_diis:                                       1.00E-01
                        eps_eigval:                                     1.00E-05
                        --------------------------------------------------------
                        level_shift [a.u.]:                             0.000000
                        added MOs                                       100  100
                        --------------------------------------------------------
                        Mixing method:                            BROYDEN_MIXING
                                                charge density mixing in g-space
                        --------------------------------------------------------
                        Smear method:                                FERMI_DIRAC
                        Electronic temperature [K]:                        300.0
                        Electronic temperature [a.u.]:                  9.50E-04
                        Accuracy threshold:                             1.00E-10
                        --------------------------------------------------------
                        Outer loop SCF in use 
                        No variables optimised in outer loop
                        eps_scf                                         1.00E-06
                        max_scf                                               30
                        DIIS optimization
                        DIIS buffer length                                     3
                        step_size                                       5.00E-01

 Spin 1

 Number of electrons:                                                        224
 Number of occupied orbitals:                                                224
 Number of molecular orbitals:                                               324

 Spin 2

 Number of electrons:                                                        224
 Number of occupied orbitals:                                                224
 Number of molecular orbitals:                                               324

 Number of orbital functions:                                               1456
 Number of independent orbital functions:                                   1456

 Extrapolation method: initial_guess


 SCF WAVEFUNCTION OPTIMIZATION

  Step     Update method      Time    Convergence         Total energy    Change
  ------------------------------------------------------------------------------
     1 NoMix/Diag. 0.10E+00   22.1     0.46286664      -633.6368313535 -6.34E+02
     2 Broy./Diag. 0.10E+00   27.0     0.00116589      -608.6864174167  2.50E+01
     3 Broy./Diag. 0.10E+00   26.4     0.01303730      -627.9834183842 -1.93E+01
     4 Broy./Diag. 0.10E+00   27.4     0.00018737      -636.1350635694 -8.15E+00
     5 Broy./Diag. 0.10E+00   27.2     0.00145581      -636.4369957583 -3.02E-01
     6 Broy./Diag. 0.10E+00   27.8     0.00005158      -637.1233167139 -6.86E-01
     7 Broy./Diag. 0.10E+00   26.8     0.00041274      -637.4416519867 -3.18E-01
     8 Broy./Diag. 0.10E+00   40.4     0.00002736      -637.6636280202 -2.22E-01
     9 Broy./Diag. 0.10E+00   30.2     0.00043350      -637.7674752713 -1.04E-01
    10 Broy./Diag. 0.10E+00   29.6     0.00002542      -637.9058858515 -1.38E-01
    11 Broy./Diag. 0.10E+00   29.5     0.00027585      -637.8603643089  4.55E-02
    12 Broy./Diag. 0.10E+00   30.9     0.00001651      -637.9074162887 -4.71E-02
    13 Broy./Diag. 0.10E+00   28.4     0.00030605      -637.9431347747 -3.57E-02
    14 Broy./Diag. 0.10E+00   34.7     0.00002370      -637.9683984871 -2.53E-02
    15 Broy./Diag. 0.10E+00   29.0     0.00018635      -637.9830473504 -1.46E-02
    16 Broy./Diag. 0.10E+00   30.2     0.00001485      -637.9848866544 -1.84E-03
    17 Broy./Diag. 0.10E+00   31.6     0.00001873      -637.9724013023  1.25E-02
    18 Broy./Diag. 0.10E+00   28.6     0.00002987      -637.9604484837  1.20E-02
    19 Broy./Diag. 0.10E+00   30.6     0.00000542      -637.9602524072  1.96E-04
    20 Broy./Diag. 0.10E+00   28.9     0.00001805      -637.9637433426 -3.49E-03
    21 Broy./Diag. 0.10E+00   32.3     0.00001241      -637.9681082238 -4.36E-03
    22 Broy./Diag. 0.10E+00   32.4     0.00001185      -637.9719009539 -3.79E-03
    23 Broy./Diag. 0.10E+00   33.2     0.00001317      -637.9728538801 -9.53E-04
    24 Broy./Diag. 0.10E+00   29.5     0.00000201      -637.9723643842  4.89E-04
    25 Broy./Diag. 0.10E+00   33.1     0.00001944      -637.9721473120  2.17E-04
    26 Broy./Diag. 0.10E+00   35.2     0.00000487      -637.9739344719 -1.79E-03
    27 Broy./Diag. 0.10E+00   31.1     0.00001195      -637.9767333843 -2.80E-03
    28 Broy./Diag. 0.10E+00   31.1     0.00000235      -637.9775644965 -8.31E-04
    29 Broy./Diag. 0.10E+00   30.8     0.00000211      -637.9767029284  8.62E-04
    30 Broy./Diag. 0.10E+00   31.6     0.00000107      -637.9758270849  8.76E-04
    31 Broy./Diag. 0.10E+00   32.9     0.00000061      -637.9755331259  2.94E-04
    32 Broy./Diag. 0.10E+00   35.3     0.00000206      -637.9753007084  2.32E-04
    33 Broy./Diag. 0.10E+00   32.4     0.00000121      -637.9754041728 -1.03E-04
    34 Broy./Diag. 0.10E+00   33.2     0.00000049      -637.9756932515 -2.89E-04
    35 Broy./Diag. 0.10E+00   30.5     0.00000120      -637.9758422585 -1.49E-04
    36 Broy./Diag. 0.10E+00   35.3     0.00000034      -637.9758295547  1.27E-05
    37 Broy./Diag. 0.10E+00   35.4     0.00000101      -637.9757300063  9.95E-05
    38 Broy./Diag. 0.10E+00   37.1     0.00000029      -637.9757758496 -4.58E-05

  *** SCF run converged in    38 steps ***


  Electronic density on regular grids:       -447.9999999998        0.0000000002
  Core density on regular grids:              447.9999999996       -0.0000000004
  Total charge density on r-space grids:       -0.0000000002
  Total charge density g-space grids:          -0.0000000002

  Overlap energy of the core charge distribution:               0.00001886979477
  Self energy of the core charge distribution:              -1493.52088779770361
  Core Hamiltonian energy:                                    468.09833054775805
  Hartree energy:                                             583.38570935729558
  Exchange-correlation energy:                               -195.79754988372724
  Dispersion energy:                                           -0.14139694301410
  Electronic entropic energy:                                  -0.00000000000110
  Fermi energy:                                                -0.10268045164075

  Total energy:                                              -637.97577584959777

  outer SCF iter =    1 RMS gradient =   0.29E-06 energy =       -637.9757758496
  outer SCF loop converged in   1 iterations or   38 steps


  Integrated absolute spin density  :                               0.0000000007
  WARNING: S**2 computation does not yet treat fractional occupied orbitals

 *** WARNING in qs_loc_utils.F:1500 :: User requested the calculation of ***
 *** the localized wavefunction but the section LOCALIZE was not         ***
 *** specified. Localization will not be performed!                      ***


 -------------------------------------------------------------------------------
 -                                                                             -
 -  BSSE CALCULATION         FRAGMENT CONF: 01        FRAGMENT SUBCONF: 01     -
 -                           CHARGE =     0           MULTIPLICITY =     0     -
 -                                                                             -
 -                 ATOM INDEX                              ATOM NAME           -
 -                 ----------                              ---------           -
 -                    113                                   Na                 -
 -------------------------------------------------------------------------------

 *******************************************************************************
 *******************************************************************************
 **                                                                           **
 **     #####                         ##              ##                      **
 **    ##   ##            ##          ##              ##                      **
 **   ##     ##                       ##            ######                    **
 **   ##     ##  ##   ##  ##   #####  ##  ##   ####   ##    #####    #####    **
 **   ##     ##  ##   ##  ##  ##      ## ##   ##      ##   ##   ##  ##   ##   **
 **   ##  ## ##  ##   ##  ##  ##      ####     ###    ##   ######   ######    **
 **    ##  ###   ##   ##  ##  ##      ## ##      ##   ##   ##       ##        **
 **     #######   #####   ##   #####  ##  ##  ####    ##    #####   ##        **
 **           ##                                                    ##        **
 **                                                                           **
 **                                                ... make the atoms dance   **
 **                                                                           **
 **            Copyright (C) by CP2K developers group (2000-2022)             **
 **                      J. Chem. Phys. 152, 194103 (2020)                    **
 **                                                                           **
 *******************************************************************************

 *** WARNING in qs_environment.F:1470 :: More ADDED_MOs requested for beta ***
 *** spin than available.                                                  ***


 *** WARNING in qs_environment.F:1486 :: More added MOs requested than     ***
 *** available. The full set of unoccupied MOs will be used. Use           ***
 *** 'ADDED_MOS -1' to always use all available MOs and to get rid of this ***
 *** warning.                                                              ***



 TOTAL NUMBERS AND MAXIMUM NUMBERS

  Total number of            - Atomic kinds:                                   1
                             - Atoms:                                          1
                             - Shell sets:                                     1
                             - Shells:                                         5
                             - Primitive Cartesian functions:                  7
                             - Cartesian basis functions:                      9
                             - Spherical basis functions:                      9

  Maximum angular momentum of- Orbital basis functions:                        1
                             - Local part of the GTH pseudopotential:          2
                             - Non-local part of the GTH pseudopotential:      1


 SCF PARAMETERS         Density guess:                                    ATOMIC
                        --------------------------------------------------------
                        max_scf:                                             100
                        max_scf_history:                                       0
                        max_diis:                                              4
                        --------------------------------------------------------
                        eps_scf:                                        3.00E-07
                        eps_scf_history:                                0.00E+00
                        eps_diis:                                       1.00E-01
                        eps_eigval:                                     1.00E-05
                        --------------------------------------------------------
                        level_shift [a.u.]:                             0.000000
                        added MOs                                         4    5
                        --------------------------------------------------------
                        Mixing method:                            BROYDEN_MIXING
                                                charge density mixing in g-space
                        --------------------------------------------------------
                        Smear method:                                FERMI_DIRAC
                        Electronic temperature [K]:                        300.0
                        Electronic temperature [a.u.]:                  9.50E-04
                        Accuracy threshold:                             1.00E-10
                        --------------------------------------------------------
                        Outer loop SCF in use 
                        No variables optimised in outer loop
                        eps_scf                                         1.00E-06
                        max_scf                                               30
                        DIIS optimization
                        DIIS buffer length                                     3
                        step_size                                       5.00E-01

 Spin 1

 Number of electrons:                                                          5
 Number of occupied orbitals:                                                  5
 Number of molecular orbitals:                                                 9

 Spin 2

 Number of electrons:                                                          4
 Number of occupied orbitals:                                                  4
 Number of molecular orbitals:                                                 9

 Number of orbital functions:                                                  9
 Number of independent orbital functions:                                      9

 Extrapolation method: initial_guess


 SCF WAVEFUNCTION OPTIMIZATION

  Step     Update method      Time    Convergence         Total energy    Change
  ------------------------------------------------------------------------------
     1 NoMix/Diag. 0.10E+00    6.5     0.42030258       -47.1729829959 -4.72E+01
     2 Broy./Diag. 0.10E+00    4.9     0.00652460       -47.1319767445  4.10E-02
     3 Broy./Diag. 0.10E+00    7.5     0.02138160       -47.1736063021 -4.16E-02
     4 Broy./Diag. 0.10E+00    6.2     0.00032145       -47.1651111818  8.50E-03
     5 Broy./Diag. 0.10E+00    5.2     0.12535846       -47.1777550665 -1.26E-02
     6 Broy./Diag. 0.10E+00    8.8     0.01862011       -46.7640489354  4.14E-01
     7 Broy./Diag. 0.10E+00    4.9     0.00466963       -46.7473607600  1.67E-02
     8 Broy./Diag. 0.10E+00    5.8     0.01511122       -46.7536933408 -6.33E-03
     9 Broy./Diag. 0.10E+00    5.8     0.04440772       -46.8528838747 -9.92E-02
    10 Broy./Diag. 0.10E+00   10.1     0.01675405       -47.0156054370 -1.63E-01
    11 Broy./Diag. 0.10E+00    5.8     0.00550111       -47.0891494744 -7.35E-02
    12 Broy./Diag. 0.10E+00    5.6     0.02088865       -47.1161764319 -2.70E-02
    13 Broy./Diag. 0.10E+00    6.8     0.01681261       -47.1943069068 -7.81E-02
    14 Broy./Diag. 0.10E+00    9.7     0.00462325       -47.2303787431 -3.61E-02
    15 Broy./Diag. 0.10E+00    7.0     0.01437037       -47.2064046490  2.40E-02
    16 Broy./Diag. 0.10E+00    7.0     0.00363496       -47.2594214025 -5.30E-02
    17 Broy./Diag. 0.10E+00    6.0     0.00109072       -47.2643602552 -4.94E-03
    18 Broy./Diag. 0.10E+00    6.9     0.00285579       -47.2803476384 -1.60E-02
    19 Broy./Diag. 0.10E+00    5.7     0.00467656       -47.2956885021 -1.53E-02
    20 Broy./Diag. 0.10E+00    7.1     0.00153993       -47.3138631021 -1.82E-02
    21 Broy./Diag. 0.10E+00    7.1     0.00022988       -47.3187522286 -4.89E-03
    22 Broy./Diag. 0.10E+00    9.3     0.00008459       -47.3141689966  4.58E-03
    23 Broy./Diag. 0.10E+00    6.8     0.00030222       -47.3179259926 -3.76E-03
    24 Broy./Diag. 0.10E+00    5.5     0.01952284       -47.3033754747  1.46E-02
    25 Broy./Diag. 0.10E+00    6.6     0.00391387       -47.2153544488  8.80E-02
    26 Broy./Diag. 0.10E+00    6.4     0.00063563       -47.1994572534  1.59E-02
    27 Broy./Diag. 0.10E+00    6.6     0.00008152       -47.1935446551  5.91E-03
    28 Broy./Diag. 0.10E+00    5.6     0.00099753       -47.1867113974  6.83E-03
    29 Broy./Diag. 0.10E+00    7.6     0.00204728       -47.1781857382  8.53E-03
    30 Broy./Diag. 0.10E+00    7.7     0.00101154       -47.1809077711 -2.72E-03
    31 Broy./Diag. 0.10E+00    6.1     0.00288593       -47.1832199607 -2.31E-03
    32 Broy./Diag. 0.10E+00    8.0     0.00375623       -47.1929135093 -9.69E-03
    33 Broy./Diag. 0.10E+00    9.1     0.00221942       -47.2094043515 -1.65E-02
    34 Broy./Diag. 0.10E+00    7.0     0.00308502       -47.2186397939 -9.24E-03
    35 Broy./Diag. 0.10E+00    8.4     0.00526269       -47.2321901973 -1.36E-02
    36 Broy./Diag. 0.10E+00    7.6     0.00019940       -47.2553352194 -2.31E-02
    37 Broy./Diag. 0.10E+00   10.8     0.00006837       -47.2553503560 -1.51E-05
    38 Broy./Diag. 0.10E+00   10.0     0.00031528       -47.2493651489  5.99E-03
    39 Broy./Diag. 0.10E+00    7.3     0.00013772       -47.2458326188  3.53E-03
    40 Broy./Diag. 0.10E+00    5.0     0.00003417       -47.2436099763  2.22E-03
    41 Broy./Diag. 0.10E+00    7.9     0.00033517       -47.2273655739  1.62E-02
    42 Broy./Diag. 0.10E+00    7.2     0.00050216       -47.2023319024  2.50E-02
    43 Broy./Diag. 0.10E+00    5.9     0.00044135       -47.1788769645  2.35E-02
    44 Broy./Diag. 0.10E+00    9.5     0.00021284       -47.1649077256  1.40E-02
    45 Broy./Diag. 0.10E+00    6.2     0.00011571       -47.1669755311 -2.07E-03
    46 Broy./Diag. 0.10E+00    9.7     0.00014290       -47.1677017709 -7.26E-04
    47 Broy./Diag. 0.10E+00   10.3     0.00016308       -47.1655985960  2.10E-03
    48 Broy./Diag. 0.10E+00    8.8     0.00004749       -47.1680773501 -2.48E-03
    49 Broy./Diag. 0.10E+00    6.9     0.00005906       -47.1682804242 -2.03E-04
    50 Broy./Diag. 0.10E+00    5.7     0.00006668       -47.1671879980  1.09E-03
    51 Broy./Diag. 0.10E+00    6.3     0.00015440       -47.1665733377  6.15E-04
    52 Broy./Diag. 0.10E+00    6.2     0.00000984       -47.1665971914 -2.39E-05
    53 Broy./Diag. 0.10E+00    6.3     0.00004585       -47.1674155070 -8.18E-04
    54 Broy./Diag. 0.10E+00    6.6     0.00005538       -47.1679552730 -5.40E-04
    55 Broy./Diag. 0.10E+00    6.3     0.00007927       -47.1673316507  6.24E-04
    56 Broy./Diag. 0.10E+00    7.8     0.00006480       -47.1669941629  3.37E-04
    57 Broy./Diag. 0.10E+00    9.0     0.00006799       -47.1679668943 -9.73E-04
    58 Broy./Diag. 0.10E+00    5.9     0.00022263       -47.1679160164  5.09E-05
    59 Broy./Diag. 0.10E+00    6.1     0.00020578       -47.1672907491  6.25E-04
    60 Broy./Diag. 0.10E+00    8.4     0.00001475       -47.1671477708  1.43E-04
    61 Broy./Diag. 0.10E+00    6.1     0.00015718       -47.1668005843  3.47E-04
    62 Broy./Diag. 0.10E+00    8.3     0.00007094       -47.1661971254  6.03E-04
    63 Broy./Diag. 0.10E+00   10.2     0.00006679       -47.1660124537  1.85E-04
    64 Broy./Diag. 0.10E+00   10.1     0.00015332       -47.1657765248  2.36E-04
    65 Broy./Diag. 0.10E+00    9.4     0.00062362       -47.1667999542 -1.02E-03
    66 Broy./Diag. 0.10E+00    9.2     0.00055036       -47.1689026012 -2.10E-03
    67 Broy./Diag. 0.10E+00    5.8     0.00043669       -47.1665282160  2.37E-03
    68 Broy./Diag. 0.10E+00    4.9     0.00006324       -47.1679058289 -1.38E-03
    69 Broy./Diag. 0.10E+00    7.6     0.00029967       -47.1674922095  4.14E-04
    70 Broy./Diag. 0.10E+00    5.9     0.00011673       -47.1686719749 -1.18E-03
    71 Broy./Diag. 0.10E+00    6.0     0.00018198       -47.1682772864  3.95E-04
    72 Broy./Diag. 0.10E+00    6.1     0.00014162       -47.1690991447 -8.22E-04
    73 Broy./Diag. 0.10E+00    6.7     0.00031918       -47.1696875609 -5.88E-04
    74 Broy./Diag. 0.10E+00    7.2     0.00003493       -47.1709279660 -1.24E-03
    75 Broy./Diag. 0.10E+00    6.0     0.00017227       -47.1710838272 -1.56E-04
    76 Broy./Diag. 0.10E+00    8.3     0.00014797       -47.1703568980  7.27E-04
    77 Broy./Diag. 0.10E+00    5.6     0.00007811       -47.1709980533 -6.41E-04
    78 Broy./Diag. 0.10E+00    7.3     0.00005063       -47.1705589584  4.39E-04
    79 Broy./Diag. 0.10E+00    9.5     0.00003889       -47.1704446961  1.14E-04
    80 Broy./Diag. 0.10E+00    5.9     0.00002731       -47.1698664593  5.78E-04
    81 Broy./Diag. 0.10E+00    7.5     0.00003680       -47.1694761242  3.90E-04
    82 Broy./Diag. 0.10E+00    6.3     0.00002277       -47.1686815860  7.95E-04
    83 Broy./Diag. 0.10E+00    5.5     0.00002075       -47.1683024562  3.79E-04
    84 Broy./Diag. 0.10E+00    9.7     0.00000701       -47.1680943736  2.08E-04
    85 Broy./Diag. 0.10E+00    5.1     0.00001555       -47.1680471976  4.72E-05
    86 Broy./Diag. 0.10E+00    9.6     0.00001966       -47.1678992118  1.48E-04
    87 Broy./Diag. 0.10E+00    5.7     0.00002228       -47.1680305516 -1.31E-04
    88 Broy./Diag. 0.10E+00    5.8     0.00000268       -47.1680615754 -3.10E-05
    89 Broy./Diag. 0.10E+00    5.4     0.00000263       -47.1681290718 -6.75E-05
    90 Broy./Diag. 0.10E+00    8.2     0.00000589       -47.1681704909 -4.14E-05
    91 Broy./Diag. 0.10E+00    9.2     0.00000156       -47.1682413436 -7.09E-05
    92 Broy./Diag. 0.10E+00    7.0     0.00003192       -47.1680836957  1.58E-04
    93 Broy./Diag. 0.10E+00   10.2     0.00001575       -47.1686906488 -6.07E-04
    94 Broy./Diag. 0.10E+00    5.7     0.00001451       -47.1682419049  4.49E-04
    95 Broy./Diag. 0.10E+00    6.9     0.00000740       -47.1679741715  2.68E-04
    96 Broy./Diag. 0.10E+00    5.5     0.00000897       -47.1675761357  3.98E-04
    97 Broy./Diag. 0.10E+00    5.8     0.00002721       -47.1672693136  3.07E-04
    98 Broy./Diag. 0.10E+00    7.0     0.00001412       -47.1669625024  3.07E-04
    99 Broy./Diag. 0.10E+00    5.8     0.00000370       -47.1669891868 -2.67E-05
   100 Broy./Diag. 0.10E+00   10.3     0.00000701       -47.1667885986  2.01E-04

  Leaving inner SCF loop after reaching   100 steps.


  Electronic density on regular grids:         -9.0001210224       -0.0001210224
  Core density on regular grids:                9.0000000000       -0.0000000000
  Total charge density on r-space grids:       -0.0001210224
  Total charge density g-space grids:          -0.0001210224

  Overlap energy of the core charge distribution:               0.00000000000000
  Self energy of the core charge distribution:                -96.60649019442629
  Core Hamiltonian energy:                                     29.76236067486650
  Hartree energy:                                              26.73071386996353
  Exchange-correlation energy:                                 -7.05336948541382
  Dispersion energy:                                           -0.00000346358047
  Electronic entropic energy:                                  -0.00000000000000
  Fermi energy:                                                -0.07268812255672

  Total energy:                                               -47.16678859859054

  outer SCF iter =    1 RMS gradient =   0.70E-05 energy =        -47.1667885986
     1 Broy./Diag. 0.10E+00   16.7     0.00002138       -47.1669513526 -1.63E-04
     2 Broy./Diag. 0.10E+00   10.1     0.00001803       -47.1669287709  2.26E-05
     3 Broy./Diag. 0.10E+00    4.9     0.00000666       -47.1668891818  3.96E-05
     4 Broy./Diag. 0.10E+00    9.6     0.00000430       -47.1666733941  2.16E-04
     5 Broy./Diag. 0.10E+00    8.4     0.00000310       -47.1667430626 -6.97E-05
     6 Broy./Diag. 0.10E+00    6.8     0.00000281       -47.1668448400 -1.02E-04
     7 Broy./Diag. 0.10E+00    5.7     0.00000078       -47.1668873288 -4.25E-05
     8 Broy./Diag. 0.10E+00    9.0     0.00000284       -47.1669319175 -4.46E-05
     9 Broy./Diag. 0.10E+00    8.5     0.00000120       -47.1669165390  1.54E-05
    10 Broy./Diag. 0.10E+00    6.3     0.00000155       -47.1668993617  1.72E-05
    11 Broy./Diag. 0.10E+00    6.5     0.00000782       -47.1669452458 -4.59E-05
    12 Broy./Diag. 0.10E+00   10.2     0.00000172       -47.1669956317 -5.04E-05
    13 Broy./Diag. 0.10E+00    7.6     0.00000078       -47.1669794636  1.62E-05
    14 Broy./Diag. 0.10E+00    9.0     0.00000036       -47.1669761302  3.33E-06
    15 Broy./Diag. 0.10E+00    6.0     0.00000071       -47.1669928212 -1.67E-05
    16 Broy./Diag. 0.10E+00    6.6     0.00000123       -47.1669924881  3.33E-07
    17 Broy./Diag. 0.10E+00   10.2     0.00000032       -47.1669876346  4.85E-06
    18 Broy./Diag. 0.10E+00    9.5     0.00000287       -47.1669749256  1.27E-05
    19 Broy./Diag. 0.10E+00    5.9     0.00000545       -47.1669581867  1.67E-05
    20 Broy./Diag. 0.10E+00    7.6     0.00000676       -47.1671059579 -1.48E-04
    21 Broy./Diag. 0.10E+00    6.0     0.00000086       -47.1671183538 -1.24E-05
    22 Broy./Diag. 0.10E+00    5.5     0.00000163       -47.1670468473  7.15E-05
    23 Broy./Diag. 0.10E+00    6.9     0.00000101       -47.1670286345  1.82E-05
    24 Broy./Diag. 0.10E+00    8.5     0.00000116       -47.1670679440 -3.93E-05
    25 Broy./Diag. 0.10E+00    6.2     0.00000046       -47.1670926633 -2.47E-05
    26 Broy./Diag. 0.10E+00    6.7     0.00000064       -47.1670841581  8.51E-06
    27 Broy./Diag. 0.10E+00    9.6     0.00000380       -47.1669993505  8.48E-05
    28 Broy./Diag. 0.10E+00    9.2     0.00000087       -47.1669591926  4.02E-05
    29 Broy./Diag. 0.10E+00    6.5     0.00000093       -47.1669481375  1.11E-05
    30 Broy./Diag. 0.10E+00    9.6     0.00000054       -47.1669524367 -4.30E-06
    31 Broy./Diag. 0.10E+00    5.6     0.00000025       -47.1669514895  9.47E-07

  *** SCF run converged in    31 steps ***


  Electronic density on regular grids:         -9.0001210234       -0.0001210234
  Core density on regular grids:                9.0000000000       -0.0000000000
  Total charge density on r-space grids:       -0.0001210234
  Total charge density g-space grids:          -0.0001210234

  Overlap energy of the core charge distribution:               0.00000000000000
  Self energy of the core charge distribution:                -96.60649019442629
  Core Hamiltonian energy:                                     29.76226938442428
  Hartree energy:                                              26.73066230152322
  Exchange-correlation energy:                                 -7.05338951740738
  Dispersion energy:                                           -0.00000346358047
  Electronic entropic energy:                                  -0.00000000000000
  Fermi energy:                                                -0.07283796553285

  Total energy:                                               -47.16695148946665

  outer SCF iter =    2 RMS gradient =   0.25E-06 energy =        -47.1669514895
  outer SCF loop converged in   2 iterations or  131 steps


  Integrated absolute spin density  :                               1.0000397949
  WARNING: S**2 computation does not yet treat fractional occupied orbitals

 *** WARNING in qs_loc_utils.F:1500 :: User requested the calculation of ***
 *** the localized wavefunction but the section LOCALIZE was not         ***
 *** specified. Localization will not be performed!                      ***


 -------------------------------------------------------------------------------
 -                                                                             -
 -  BSSE CALCULATION         FRAGMENT CONF: 11        FRAGMENT SUBCONF: 10     -
 -                           CHARGE =     0           MULTIPLICITY =     0     -
 -                                                                             -
 -                 ATOM INDEX                              ATOM NAME           -
 -                 ----------                              ---------           -
 -                      1                                   C                  -
 -                      2                                   C                  -
 -                      3                                   C                  -
 -                      4                                   C                  -
 -                      5                                   C                  -
 -                      6                                   C                  -
 -                      7                                   C                  -
 -                      8                                   C                  -
 -                      9                                   C                  -
 -                     10                                   C                  -
 -                     11                                   C                  -
 -                     12                                   C                  -
 -                     13                                   C                  -
 -                     14                                   C                  -
 -                     15                                   C                  -
 -                     16                                   C                  -
 -                     17                                   C                  -
 -                     18                                   C                  -
 -                     19                                   C                  -
 -                     20                                   C                  -
 -                     21                                   C                  -
 -                     22                                   C                  -
 -                     23                                   C                  -
 -                     24                                   C                  -
 -                     25                                   C                  -
 -                     26                                   C                  -
 -                     27                                   C                  -
 -                     28                                   C                  -
 -                     29                                   C                  -
 -                     30                                   C                  -
 -                     31                                   C                  -
 -                     32                                   C                  -
 -                     33                                   C                  -
 -                     34                                   C                  -
 -                     35                                   C                  -
 -                     36                                   C                  -
 -                     37                                   C                  -
 -                     38                                   C                  -
 -                     39                                   C                  -
 -                     40                                   C                  -
 -                     41                                   C                  -
 -                     42                                   C                  -
 -                     43                                   C                  -
 -                     44                                   C                  -
 -                     45                                   C                  -
 -                     46                                   C                  -
 -                     47                                   C                  -
 -                     48                                   C                  -
 -                     49                                   C                  -
 -                     50                                   C                  -
 -                     51                                   C                  -
 -                     52                                   C                  -
 -                     53                                   C                  -
 -                     54                                   C                  -
 -                     55                                   C                  -
 -                     56                                   C                  -
 -                     57                                   C                  -
 -                     58                                   C                  -
 -                     59                                   C                  -
 -                     60                                   C                  -
 -                     61                                   C                  -
 -                     62                                   C                  -
 -                     63                                   C                  -
 -                     64                                   C                  -
 -                     65                                   C                  -
 -                     66                                   C                  -
 -                     67                                   C                  -
 -                     68                                   C                  -
 -                     69                                   C                  -
 -                     70                                   C                  -
 -                     71                                   C                  -
 -                     72                                   C                  -
 -                     73                                   C                  -
 -                     74                                   C                  -
 -                     75                                   C                  -
 -                     76                                   C                  -
 -                     77                                   C                  -
 -                     78                                   C                  -
 -                     79                                   C                  -
 -                     80                                   C                  -
 -                     81                                   C                  -
 -                     82                                   C                  -
 -                     83                                   C                  -
 -                     84                                   C                  -
 -                     85                                   C                  -
 -                     86                                   C                  -
 -                     87                                   C                  -
 -                     88                                   C                  -
 -                     89                                   C                  -
 -                     90                                   C                  -
 -                     91                                   C                  -
 -                     92                                   C                  -
 -                     93                                   C                  -
 -                     94                                   C                  -
 -                     95                                   C                  -
 -                     96                                   C                  -
 -                     97                                   C                  -
 -                     98                                   C                  -
 -                     99                                   C                  -
 -                    100                                   C                  -
 -                    101                                   C                  -
 -                    102                                   C                  -
 -                    103                                   C                  -
 -                    104                                   C                  -
 -                    105                                   C                  -
 -                    106                                   C                  -
 -                    107                                   C                  -
 -                    108                                   C                  -
 -                    109                                   C                  -
 -                    110                                   C                  -
 -                    111                                   C                  -
 -                    112                                   C                  -
 -                    113                                   Na_ghost           -
 -------------------------------------------------------------------------------

 *******************************************************************************
 *******************************************************************************
 **                                                                           **
 **     #####                         ##              ##                      **
 **    ##   ##            ##          ##              ##                      **
 **   ##     ##                       ##            ######                    **
 **   ##     ##  ##   ##  ##   #####  ##  ##   ####   ##    #####    #####    **
 **   ##     ##  ##   ##  ##  ##      ## ##   ##      ##   ##   ##  ##   ##   **
 **   ##  ## ##  ##   ##  ##  ##      ####     ###    ##   ######   ######    **
 **    ##  ###   ##   ##  ##  ##      ## ##      ##   ##   ##       ##        **
 **     #######   #####   ##   #####  ##  ##  ####    ##    #####   ##        **
 **           ##                                                    ##        **
 **                                                                           **
 **                                                ... make the atoms dance   **
 **                                                                           **
 **            Copyright (C) by CP2K developers group (2000-2022)             **
 **                      J. Chem. Phys. 152, 194103 (2020)                    **
 **                                                                           **
 *******************************************************************************


 TOTAL NUMBERS AND MAXIMUM NUMBERS

  Total number of            - Atomic kinds:                                   2
                             - Atoms:                                        113
                             - Shell sets:                                   113
                             - Shells:                                       565
                             - Primitive Cartesian functions:                567
                             - Cartesian basis functions:                   1577
                             - Spherical basis functions:                   1465

  Maximum angular momentum of- Orbital basis functions:                        2
                             - Local part of the GTH pseudopotential:          2
                             - Non-local part of the GTH pseudopotential:      0


 SCF PARAMETERS         Density guess:                                    ATOMIC
                        --------------------------------------------------------
                        max_scf:                                             100
                        max_scf_history:                                       0
                        max_diis:                                              4
                        --------------------------------------------------------
                        eps_scf:                                        3.00E-07
                        eps_scf_history:                                0.00E+00
                        eps_diis:                                       1.00E-01
                        eps_eigval:                                     1.00E-05
                        --------------------------------------------------------
                        level_shift [a.u.]:                             0.000000
                        added MOs                                       100  100
                        --------------------------------------------------------
                        Mixing method:                            BROYDEN_MIXING
                                                charge density mixing in g-space
                        --------------------------------------------------------
                        Smear method:                                FERMI_DIRAC
                        Electronic temperature [K]:                        300.0
                        Electronic temperature [a.u.]:                  9.50E-04
                        Accuracy threshold:                             1.00E-10
                        --------------------------------------------------------
                        Outer loop SCF in use 
                        No variables optimised in outer loop
                        eps_scf                                         1.00E-06
                        max_scf                                               30
                        DIIS optimization
                        DIIS buffer length                                     3
                        step_size                                       5.00E-01

 Spin 1

 Number of electrons:                                                        224
 Number of occupied orbitals:                                                224
 Number of molecular orbitals:                                               324

 Spin 2

 Number of electrons:                                                        224
 Number of occupied orbitals:                                                224
 Number of molecular orbitals:                                               324

 Number of orbital functions:                                               1465
 Number of independent orbital functions:                                   1465

 Extrapolation method: initial_guess


 SCF WAVEFUNCTION OPTIMIZATION

  Step     Update method      Time    Convergence         Total energy    Change
  ------------------------------------------------------------------------------
     1 NoMix/Diag. 0.10E+00   34.5     0.46295963      -633.6368313535 -6.34E+02
     2 Broy./Diag. 0.10E+00   38.1     0.00116639      -608.6796163420  2.50E+01
     3 Broy./Diag. 0.10E+00   37.0     0.01304214      -627.9747385956 -1.93E+01
     4 Broy./Diag. 0.10E+00   40.0     0.00018788      -636.1314319226 -8.16E+00
     5 Broy./Diag. 0.10E+00   35.8     0.00142862      -636.4336002382 -3.02E-01
     6 Broy./Diag. 0.10E+00   39.4     0.00005126      -637.1215146371 -6.88E-01
     7 Broy./Diag. 0.10E+00   33.6     0.00040868      -637.4406254286 -3.19E-01
     8 Broy./Diag. 0.10E+00   35.4     0.00002633      -637.6638073534 -2.23E-01
     9 Broy./Diag. 0.10E+00   39.2     0.00041656      -637.7677634233 -1.04E-01
    10 Broy./Diag. 0.10E+00   40.4     0.00002495      -637.9070484171 -1.39E-01
    11 Broy./Diag. 0.10E+00   41.1     0.00026822      -637.8610659859  4.60E-02
    12 Broy./Diag. 0.10E+00   40.1     0.00001586      -637.9082334092 -4.72E-02
    13 Broy./Diag. 0.10E+00   44.5     0.00029473      -637.9444252987 -3.62E-02
    14 Broy./Diag. 0.10E+00   45.2     0.00002273      -637.9696918324 -2.53E-02
    15 Broy./Diag. 0.10E+00   43.4     0.00017974      -637.9842323060 -1.45E-02
    16 Broy./Diag. 0.10E+00   40.8     0.00001379      -637.9859929020 -1.76E-03
    17 Broy./Diag. 0.10E+00   40.6     0.00001802      -637.9735681230  1.24E-02
    18 Broy./Diag. 0.10E+00   43.1     0.00002851      -637.9615432760  1.20E-02
    19 Broy./Diag. 0.10E+00   40.7     0.00000642      -637.9616769936 -1.34E-04
    20 Broy./Diag. 0.10E+00   38.9     0.00001894      -637.9656984357 -4.02E-03
    21 Broy./Diag. 0.10E+00   39.3     0.00001037      -637.9703522762 -4.65E-03
    22 Broy./Diag. 0.10E+00   44.1     0.00001181      -637.9737876380 -3.44E-03
    23 Broy./Diag. 0.10E+00   36.7     0.00001354      -637.9744267069 -6.39E-04
    24 Broy./Diag. 0.10E+00   44.4     0.00000236      -637.9739000380  5.27E-04
    25 Broy./Diag. 0.10E+00   36.6     0.00002069      -637.9736803824  2.20E-04
    26 Broy./Diag. 0.10E+00   41.6     0.00000581      -637.9752164554 -1.54E-03
    27 Broy./Diag. 0.10E+00   40.9     0.00001090      -637.9779311878 -2.71E-03
    28 Broy./Diag. 0.10E+00   42.3     0.00000253      -637.9786841064 -7.53E-04
    29 Broy./Diag. 0.10E+00   37.7     0.00000233      -637.9778296109  8.54E-04
    30 Broy./Diag. 0.10E+00   40.3     0.00000161      -637.9768538559  9.76E-04
    31 Broy./Diag. 0.10E+00   36.7     0.00000061      -637.9765209243  3.33E-04
    32 Broy./Diag. 0.10E+00   40.4     0.00000228      -637.9762645382  2.56E-04
    33 Broy./Diag. 0.10E+00   37.1     0.00000132      -637.9763548507 -9.03E-05
    34 Broy./Diag. 0.10E+00   37.9     0.00000052      -637.9766462717 -2.91E-04
    35 Broy./Diag. 0.10E+00   42.1     0.00000127      -637.9767997427 -1.53E-04
    36 Broy./Diag. 0.10E+00   43.0     0.00000030      -637.9767873614  1.24E-05

  *** SCF run converged in    36 steps ***


  Electronic density on regular grids:       -447.9999999996        0.0000000004
  Core density on regular grids:              447.9999999996       -0.0000000004
  Total charge density on r-space grids:        0.0000000000
  Total charge density g-space grids:           0.0000000000

  Overlap energy of the core charge distribution:               0.00001886979477
  Self energy of the core charge distribution:              -1493.52088779770361
  Core Hamiltonian energy:                                    468.09544990876839
  Hartree energy:                                             583.38928887484371
  Exchange-correlation energy:                               -195.79926027409954
  Dispersion energy:                                           -0.14139694301410
  Electronic entropic energy:                                  -0.00000000000110
  Fermi energy:                                                -0.10261331191893

  Total energy:                                              -637.97678736141154

  outer SCF iter =    1 RMS gradient =   0.30E-06 energy =       -637.9767873614
  outer SCF loop converged in   1 iterations or   36 steps


  Integrated absolute spin density  :                               0.0000000004
  WARNING: S**2 computation does not yet treat fractional occupied orbitals

 *** WARNING in qs_loc_utils.F:1500 :: User requested the calculation of ***
 *** the localized wavefunction but the section LOCALIZE was not         ***
 *** specified. Localization will not be performed!                      ***


 -------------------------------------------------------------------------------
 -                                                                             -
 -  BSSE CALCULATION         FRAGMENT CONF: 11        FRAGMENT SUBCONF: 01     -
 -                           CHARGE =     0           MULTIPLICITY =     0     -
 -                                                                             -
 -                 ATOM INDEX                              ATOM NAME           -
 -                 ----------                              ---------           -
 -                      1                                   C_ghost            -
 -                      2                                   C_ghost            -
 -                      3                                   C_ghost            -
 -                      4                                   C_ghost            -
 -                      5                                   C_ghost            -
 -                      6                                   C_ghost            -
 -                      7                                   C_ghost            -
 -                      8                                   C_ghost            -
 -                      9                                   C_ghost            -
 -                     10                                   C_ghost            -
 -                     11                                   C_ghost            -
 -                     12                                   C_ghost            -
 -                     13                                   C_ghost            -
 -                     14                                   C_ghost            -
 -                     15                                   C_ghost            -
 -                     16                                   C_ghost            -
 -                     17                                   C_ghost            -
 -                     18                                   C_ghost            -
 -                     19                                   C_ghost            -
 -                     20                                   C_ghost            -
 -                     21                                   C_ghost            -
 -                     22                                   C_ghost            -
 -                     23                                   C_ghost            -
 -                     24                                   C_ghost            -
 -                     25                                   C_ghost            -
 -                     26                                   C_ghost            -
 -                     27                                   C_ghost            -
 -                     28                                   C_ghost            -
 -                     29                                   C_ghost            -
 -                     30                                   C_ghost            -
 -                     31                                   C_ghost            -
 -                     32                                   C_ghost            -
 -                     33                                   C_ghost            -
 -                     34                                   C_ghost            -
 -                     35                                   C_ghost            -
 -                     36                                   C_ghost            -
 -                     37                                   C_ghost            -
 -                     38                                   C_ghost            -
 -                     39                                   C_ghost            -
 -                     40                                   C_ghost            -
 -                     41                                   C_ghost            -
 -                     42                                   C_ghost            -
 -                     43                                   C_ghost            -
 -                     44                                   C_ghost            -
 -                     45                                   C_ghost            -
 -                     46                                   C_ghost            -
 -                     47                                   C_ghost            -
 -                     48                                   C_ghost            -
 -                     49                                   C_ghost            -
 -                     50                                   C_ghost            -
 -                     51                                   C_ghost            -
 -                     52                                   C_ghost            -
 -                     53                                   C_ghost            -
 -                     54                                   C_ghost            -
 -                     55                                   C_ghost            -
 -                     56                                   C_ghost            -
 -                     57                                   C_ghost            -
 -                     58                                   C_ghost            -
 -                     59                                   C_ghost            -
 -                     60                                   C_ghost            -
 -                     61                                   C_ghost            -
 -                     62                                   C_ghost            -
 -                     63                                   C_ghost            -
 -                     64                                   C_ghost            -
 -                     65                                   C_ghost            -
 -                     66                                   C_ghost            -
 -                     67                                   C_ghost            -
 -                     68                                   C_ghost            -
 -                     69                                   C_ghost            -
 -                     70                                   C_ghost            -
 -                     71                                   C_ghost            -
 -                     72                                   C_ghost            -
 -                     73                                   C_ghost            -
 -                     74                                   C_ghost            -
 -                     75                                   C_ghost            -
 -                     76                                   C_ghost            -
 -                     77                                   C_ghost            -
 -                     78                                   C_ghost            -
 -                     79                                   C_ghost            -
 -                     80                                   C_ghost            -
 -                     81                                   C_ghost            -
 -                     82                                   C_ghost            -
 -                     83                                   C_ghost            -
 -                     84                                   C_ghost            -
 -                     85                                   C_ghost            -
 -                     86                                   C_ghost            -
 -                     87                                   C_ghost            -
 -                     88                                   C_ghost            -
 -                     89                                   C_ghost            -
 -                     90                                   C_ghost            -
 -                     91                                   C_ghost            -
 -                     92                                   C_ghost            -
 -                     93                                   C_ghost            -
 -                     94                                   C_ghost            -
 -                     95                                   C_ghost            -
 -                     96                                   C_ghost            -
 -                     97                                   C_ghost            -
 -                     98                                   C_ghost            -
 -                     99                                   C_ghost            -
 -                    100                                   C_ghost            -
 -                    101                                   C_ghost            -
 -                    102                                   C_ghost            -
 -                    103                                   C_ghost            -
 -                    104                                   C_ghost            -
 -                    105                                   C_ghost            -
 -                    106                                   C_ghost            -
 -                    107                                   C_ghost            -
 -                    108                                   C_ghost            -
 -                    109                                   C_ghost            -
 -                    110                                   C_ghost            -
 -                    111                                   C_ghost            -
 -                    112                                   C_ghost            -
 -                    113                                   Na                 -
 -------------------------------------------------------------------------------

 *******************************************************************************
[...]
    22 Broy./Diag. 0.10E+00   41.0     0.00001460      -685.1666866383 -1.96E-05
    23 Broy./Diag. 0.10E+00   49.4     0.00000452      -685.1666722774  1.44E-05
    24 Broy./Diag. 0.10E+00   44.5     0.00000198      -685.1666687090  3.57E-06
    25 Broy./Diag. 0.10E+00   41.4     0.00000458      -685.1666722990 -3.59E-06
    26 Broy./Diag. 0.10E+00   42.2     0.00000166      -685.1666781501 -5.85E-06
    27 Broy./Diag. 0.10E+00   46.1     0.00000457      -685.1666794876 -1.34E-06
    28 Broy./Diag. 0.10E+00   49.3     0.00000194      -685.1666739243  5.56E-06
    29 Broy./Diag. 0.10E+00   51.8     0.00000181      -685.1666718734  2.05E-06
    30 Broy./Diag. 0.10E+00   46.8     0.00000351      -685.1666705332  1.34E-06
    31 Broy./Diag. 0.10E+00   49.7     0.00000310      -685.1666744856 -3.95E-06
    32 Broy./Diag. 0.10E+00   41.7     0.00000193      -685.1666776394 -3.15E-06
    33 Broy./Diag. 0.10E+00   45.1     0.00000011      -685.1666793261 -1.69E-06

  *** SCF run converged in    33 steps ***


  Electronic density on regular grids:       -457.0001218161       -0.0001218161
  Core density on regular grids:              456.9999999996       -0.0000000004
  Total charge density on r-space grids:       -0.0001218165
  Total charge density g-space grids:          -0.0001218165

  Overlap energy of the core charge distribution:               0.00001886979477
  Self energy of the core charge distribution:              -1590.12737799213005
  Core Hamiltonian energy:                                    498.23318745615080
  Hartree energy:                                             609.94341039860660
  Exchange-correlation energy:                               -203.06777878588881
  Dispersion energy:                                           -0.14578710447485
  Electronic entropic energy:                                  -0.00235216830098
  Fermi energy:                                                -0.06747802164726

  Total energy:                                              -685.16667932609664

  outer SCF iter =    3 RMS gradient =   0.11E-06 energy =       -685.1666793261
  outer SCF loop converged in   3 iterations or  233 steps


  Integrated absolute spin density  :                               0.1369219515
  WARNING: S**2 computation does not yet treat fractional occupied orbitals

 *** WARNING in qs_loc_utils.F:1500 :: User requested the calculation of ***
 *** the localized wavefunction but the section LOCALIZE was not         ***
 *** specified. Localization will not be performed!                      ***


 -------------------------------------------------------------------------------
 -                                                                             -
 -                                 BSSE RESULTS                                -
 -                                                                             -
 -                 CP-corrected Total energy:     -685.165193                  -
 -                                                                             -
 -                       1-body contribution:     -637.975776                  -
 -                       1-body contribution:      -47.166951                  -
 -                                                                             -
 -                       2-body contribution:       -0.022466                  -
 -                 BSSE-free interaction energy:       -0.022466               -
 -------------------------------------------------------------------------------

 -------------------------------------------------------------------------------
 -                                                                             -
 -                                DBCSR STATISTICS                             -
 -                                                                             -
 -------------------------------------------------------------------------------
 COUNTER                                    TOTAL       BLAS       SMM       ACC
 flops     9 x     9 x     8               212544     100.0%      0.0%      0.0%
 flops     9 x     9 x     9               621108     100.0%      0.0%      0.0%
 flops     9 x     9 x    68               793152     100.0%      0.0%      0.0%
 flops     9 x     9 x    72              2717712     100.0%      0.0%      0.0%
 flops     9 x     9 x    73              2755458     100.0%      0.0%      0.0%
 flops     9 x     9 x    32              5101056     100.0%      0.0%      0.0%
 flops     9 x     9 x    64              5577984     100.0%      0.0%      0.0%
 flops     9 x     9 x    96             16733952     100.0%      0.0%      0.0%
 flops    13 x     9 x     8             17192448     100.0%      0.0%      0.0%
 flops     9 x    13 x     8             17192448     100.0%      0.0%      0.0%
 flops    13 x     9 x     9             19341504     100.0%      0.0%      0.0%
 flops     9 x    13 x     9             19341504     100.0%      0.0%      0.0%
 flops    13 x     9 x    68             64157184     100.0%      0.0%      0.0%
 flops     9 x    13 x    68             64157184     100.0%      0.0%      0.0%
 flops    13 x     9 x    72            219832704     100.0%      0.0%      0.0%
 flops     9 x    13 x    72            219832704     100.0%      0.0%      0.0%
 flops    13 x     9 x    73            222885936     100.0%      0.0%      0.0%
 flops     9 x    13 x    73            222885936     100.0%      0.0%      0.0%
 flops    13 x     9 x    32            412618752     100.0%      0.0%      0.0%
 flops     9 x    13 x    32            412618752     100.0%      0.0%      0.0%
 flops    13 x     9 x    64            451196928     100.0%      0.0%      0.0%
 flops     9 x    13 x    64            451196928     100.0%      0.0%      0.0%
 flops    13 x     9 x    96           1353590784     100.0%      0.0%      0.0%
 flops     9 x    13 x    96           1353590784     100.0%      0.0%      0.0%
 flops    13 x    13 x     8           2806189568     100.0%      0.0%      0.0%
 flops    13 x    13 x     9           3156963264     100.0%      0.0%      0.0%
 flops    13 x    13 x    68          21525527296     100.0%      0.0%      0.0%
 flops    13 x    13 x    72          35881582464     100.0%      0.0%      0.0%
 flops    13 x    13 x    73          36379937776     100.0%      0.0%      0.0%
 flops    13 x    13 x    32          67348549632     100.0%      0.0%      0.0%
 flops    13 x    13 x    64          84048799744     100.0%      0.0%      0.0%
 flops    13 x    13 x    96         252146399232     100.0%      0.0%      0.0%
 flops inhomo. stacks                           0       0.0%      0.0%      0.0%
 flops total                       508.850094E+09     100.0%      0.0%      0.0%
 flops max/rank                     33.705523E+09     100.0%      0.0%      0.0%
 matmuls inhomo. stacks                         0       0.0%      0.0%      0.0%
 matmuls total                           24235598     100.0%      0.0%      0.0%
 number of processed stacks                 88262     100.0%      0.0%      0.0%
 average stack size                                   274.6       0.0       0.0
 marketing flops                   609.574978E+09
 -------------------------------------------------------------------------------
 # multiplications                           1204
 max memory usage/rank             897.548288E+06
 # max total images/rank                        1
 # max 3D layers                                1
 # MPI messages exchanged                  115584
 MPI messages size (bytes):
  total size                        16.537299E+09
  min size                           0.000000E+00
  max size                         286.464000E+03
  average size                     143.076016E+03
 MPI breakdown and total messages size (bytes):
             size <=      128               23580                        0
       128 < size <=     8192                1572                  1018656
      8192 < size <=    32768                7872                196052160
     32768 < size <=   131072               23616               2214236160
    131072 < size <=  4194304               58944              14126002992
   4194304 < size <= 16777216                   0                        0
  16777216 < size                               0                        0
 -------------------------------------------------------------------------------
 -                                                                             -
 -                      DBCSR MESSAGE PASSING PERFORMANCE                      -
 -                                                                             -
 -------------------------------------------------------------------------------
 ROUTINE             CALLS      AVE VOLUME [Bytes]
 MP_Bcast               33                     12.
 MP_Allreduce         8521                      8.
 MP_Alltoall         33772                 219551.
 MP_ISend            19264                  58833.
 MP_IRecv            19264                  50545.
 -------------------------------------------------------------------------------

 -------------------------------------------------------------------------------
 -                                                                             -
 -                                DBM STATISTICS                               -
 -                                                                             -
 -------------------------------------------------------------------------------
    M  x    N  x    K                                          COUNT     PERCENT
 -------------------------------------------------------------------------------

 -------------------------------------------------------------------------------
 -                                                                             -
 -                                GRID STATISTICS                              -
 -                                                                             -
 -------------------------------------------------------------------------------
 LP    KERNEL             BACKEND                              COUNT     PERCENT
 4     collocate general  REF                               62262050      49.19%
 4     integrate general  REF                               61737738      48.78%
 3     collocate general  REF                                1232136       0.97%
 3     integrate general  REF                                1223658       0.97%
 2     collocate general  REF                                  55664       0.04%
 2     integrate general  REF                                  55272       0.04%
 0     collocate general  REF                                   5424       0.00%
 -------------------------------------------------------------------------------

 MEMORY| Estimated peak process memory [MiB]                                 856

 -------------------------------------------------------------------------------
 -                                                                             -
 -                         MESSAGE PASSING PERFORMANCE                         -
 -                                                                             -
 -------------------------------------------------------------------------------

 ROUTINE             CALLS      AVE VOLUME [Bytes]
 MP_Group               24
 MP_Bcast             1954                 491827.
 MP_Allreduce        12738                    406.
 MP_Sync              1490
 MP_Alltoall         15157               14696463.
 MP_SendRecv         69078                 355995.
 MP_ISendRecv        54180                 362400.
 MP_Wait             80833
 MP_comm_split         262
 MP_ISend            19384                2935907.
 MP_IRecv            19384                2936035.
 MP_Recv               402                 340045.
 -------------------------------------------------------------------------------


 -------------------------------------------------------------------------------
 -                                                                             -
 -                           R E F E R E N C E S                               -
 -                                                                             -
 -------------------------------------------------------------------------------
 
 CP2K version 2023.1, the CP2K developers group (2023).
 CP2K is freely available from https://www.cp2k.org/ .

 Kuehne,Thomas D.; Iannuzzi,Marcella; Del Ben,Mauro;
 Rybkin,Vladimir V.; Seewald,Patrick; Stein,Frederick; Laino,Teodoro;
 Khaliullin,Rustam Z.; Schuett,Ole; Schiffmann,Florian; Golze,Dorothea;
 Wilhelm,Jan; Chulkov,Sergey; Bani-Hashemian,Mohammad Hossein;
 Weber,Valery; Borstnik,Urban; Taillefumier,Mathieu;
 Jakobovits,Alice Shoshana; Lazzaro,Alfio; Pabst,Hans; Mueller,Tiziano;
 Schade,Robert; Guidon,Manuel; Andermatt,Samuel; Holmberg,Nico;
 Schenter,Gregory K.; Hehn,Anna; Bussy,Augustin; Belleflamme,Fabian;
 Tabacchi,Gloria; Gloess,Andreas; Lass,Michael; Bethune,Iain;
 Mundy,Christopher J.; Plessl,Christian; Watkins,Matt;
 VandeVondele,Joost; Krack,Matthias; Hutter,Juerg. 
 The Journal of Chemical Physics, 152 (19), (2020). 
 CP2K: An electronic structure and molecular dynamics software package -
 Quickstep: Efficient and accurate electronic structure calculations.
 https://doi.org/10.1063/5.0007045

 Goerigk, Lars; Hansen, Andreas; Bauer, Christoph; Ehrlich, Stephan;
 Najibi, Asim; Grimme, Stefan. , 19 (48), (2017). 
 A look at the density functional theory zoo with the advanced GMTKN55 database
 for general main group thermochemistry, kinetics and noncovalent interactions.
 https://doi.org/10.1039/C7CP04913G

 Schuett, Ole; Messmer, Peter; Hutter, Juerg; VandeVondele, Joost. 
 Electronic Structure Calculations on Graphics Processing Units, John
 Wiley & Sons, Ltd, 173-190 (2016). 
 GPU-Accelerated Sparse Matrix-Matrix Multiplication for
 Linear Scaling Density Functional Theory.
 https://doi.org/10.1002/9781118670712.ch8

 Borstnik, U; VandeVondele, J; Weber, V; Hutter, J. 
 PARALLEL COMPUTING, 40 (5-6), 47-58 (2014). 
 Sparse matrix multiplication: The distributed block-compressed sparse
 row library.
 https://doi.org/10.1016/j.parco.2014.03.012

 Hutter, J; Iannuzzi, M; Schiffmann, F; VandeVondele, J. 
 WIREs Comput Mol Sci., 4 (1), 15-25 (2014). 
 CP2K: atomistic simulations of condensed matter systems.
 https://doi.org/10.1002/wcms.1159

 Marek, A; Blum, V; Johanni, R; Havu, V; Lang, B; Auckenthaler, T;
 Heinecke, A; Bungartz, H; Lederer, H. 
 Journal of Physics: Condensed Matter, 26 (21), (2014). 
 The ELPA library: scalable parallel eigenvalue solutions for
 electronic structure
 theory and computational science.
 https://doi.org/10.1088/0953-8984/26/21/213201

 Grimme, S; Ehrlich, S; Goerigk, L. 
 JOURNAL OF COMPUTATIONAL CHEMISTRY, 32, 1456 (2011). 
 Effect of the damping function in dispersion corrected density functional theory.
 https://doi.org/10.1002/jcc.21759

 Grimme, S; Antony, J; Ehrlich, S; Krieg, H. 
 JOURNAL OF CHEMICAL PHYSICS, 132 (15), 154104 (2010). 
 A consistent and accurate ab initio parametrization of density
 functional dispersion correction (DFT-D) for the 94 elements H-Pu.
 https://doi.org/10.1063/1.3382344

 VandeVondele, J; Hutter, J. 
 JOURNAL OF CHEMICAL PHYSICS, 127 (11), 114105 (2007). 
 Gaussian basis sets for accurate calculations on molecular systems in
 gas and condensed phases.
 https://doi.org/10.1063/1.2770708

 Krack, M. 
 THEORETICAL CHEMISTRY ACCOUNTS, 114 (1-3), 145-152 (2005). 
 Pseudopotentials for H to Kr optimized for gradient-corrected
 exchange-correlation functionals.
 https://doi.org/10.1007/s00214-005-0655-y

 VandeVondele, J; Krack, M; Mohamed, F; Parrinello, M; Chassaing, T;
 Hutter, J. COMPUTER PHYSICS COMMUNICATIONS, 167 (2), 103-128 (2005). 
 QUICKSTEP: Fast and accurate density functional calculations using a
 mixed Gaussian and plane waves approach.
 https://doi.org/10.1016/j.cpc.2004.12.014

 Frigo, M; Johnson, SG. 
 PROCEEDINGS OF THE IEEE, 93 (2), 216-231 (2005). 
 The design and implementation of FFTW3.
 https://doi.org/10.1109/JPROC.2004.840301

 Hartwigsen, C; Goedecker, S; Hutter, J. 
 PHYSICAL REVIEW B, 58 (7), 3641-3662 (1998). 
 Relativistic separable dual-space Gaussian pseudopotentials from H to Rn.
 https://doi.org/10.1103/PhysRevB.58.3641

 Lippert, G; Hutter, J; Parrinello, M. 
 MOLECULAR PHYSICS, 92 (3), 477-487 (1997). 
 A hybrid Gaussian and plane wave density functional scheme.
 https://doi.org/10.1080/002689797170220

 Perdew, JP; Burke, K; Ernzerhof, M. 
 PHYSICAL REVIEW LETTERS, 77 (18), 3865-3868 (1996). 
 Generalized gradient approximation made simple.
 https://doi.org/10.1103/PhysRevLett.77.3865

 Goedecker, S; Teter, M; Hutter, J. 
 PHYSICAL REVIEW B, 54 (3), 1703-1710 (1996). 
 Separable dual-space Gaussian pseudopotentials.
 https://doi.org/10.1103/PhysRevB.54.1703


 -------------------------------------------------------------------------------
 -                                                                             -
 -                                T I M I N G                                  -
 -                                                                             -
 -------------------------------------------------------------------------------
 SUBROUTINE                       CALLS  ASD         SELF TIME        TOTAL TIME
                                MAXIMUM       AVERAGE  MAXIMUM  AVERAGE  MAXIMUM
 CP2K                                 1  1.0     2.21     2.25 47213.16 47213.17
 qs_energies                          5  2.0     0.00     0.00 47185.52 47185.58
 scf_env_do_scf                       5  3.0     0.00     0.00 47142.59 47142.88
 scf_env_do_scf_inner_loop          602  4.0     0.03     0.08 47142.57 47142.86
 qs_scf_new_mos                     602  5.0     0.02     0.04 41161.87 41163.24
 eigensolver                       1204  6.0     0.11     0.13 39839.27 39844.32
 cp_fm_diag_elpa                    942  7.0     0.01     0.01 36140.77 36154.06
 cp_fm_diag_elpa_base               942  8.0 36093.30 36105.71 36107.26 36110.63
 cp_fm_triangular_multiply         3612  7.0  3565.84  3591.75  3565.84  3591.75
 qs_ks_update_qs_env                602  5.0     0.01     0.02  2925.95  2926.83
 rebuild_ks_matrix                  602  6.0     0.01     0.01  2864.91  2865.51
 qs_ks_build_kohn_sham_matrix       602  7.0     0.15     0.18  2864.90  2865.51
 qs_rho_update_rho_low              607  5.0     0.01     0.02  2346.30  2348.07
 calculate_rho_elec                1214  6.0     4.65     5.55  2346.29  2348.06
 sum_up_and_integrate               602  8.0     6.57     7.15  2168.15  2168.78
 integrate_v_rspace                1204  9.0     0.06     0.09  2161.57  2162.61
 rs_pw_transfer                    9677  9.5     0.23     0.31  1793.56  1848.13
 density_rs2pw                     1214  7.0     0.10     0.14  1319.75  1371.21
 potential_pw2rs                   1204 10.0     0.24     0.32  1077.46  1080.52
 grid_collocate_task_list          1214  7.0   960.86  1026.49   960.86  1026.49
 grid_integrate_task_list          1204 10.0   935.05   993.90   935.05   993.90
 -------------------------------------------------------------------------------

 The number of warnings for this run is : 7
 
 -------------------------------------------------------------------------------
  **** **** ******  **  PROGRAM ENDED AT                 2025-07-11 02:56:00.817
 ***** ** ***  *** **   PROGRAM RAN ON                                sebnode130
 **    ****   ******    PROGRAM RAN BY                                    luehrs
 ***** **    ** ** **   PROGRAM PROCESS ID                               1119611
  **** **  *******  **  PROGRAM STOPPED IN /home/luehrs/PhD/Sodium_batteries/Sod
                                           ium-graphene-surface/Zig-Zag_3
