 DBCSR| Multiplication driver                                               XSMM
 DBCSR| Multrec recursion limit                                              512
 DBCSR| Multiplication stack size                                           1000
 DBCSR| Maximum elements for images                                    UNLIMITED
 DBCSR| Multiplicative factor virtual images                                   1
 DBCSR| Multiplication size stacks                                             3
 DBCSR| Number of 3D layers                                               SINGLE
 DBCSR| Use MPI memory allocation                                              T
 DBCSR| Use RMA algorithm                                                      F
 DBCSR| Use Communication thread                                               T
 DBCSR| Communication thread load                                             87


  **** **** ******  **  PROGRAM STARTED AT               2024-08-07 11:29:48.600
 ***** ** ***  *** **   PROGRAM STARTED ON                            sebnode047
 **    ****   ******    PROGRAM STARTED BY                                luehrs
 ***** **    ** ** **   PROGRAM PROCESS ID                                307457
  **** **  *******  **  PROGRAM STARTED IN /home/luehrs/PhD/Sodium_batteries/Sod
                                           ium-graphene-surface/Zig-Zag_3

 CP2K| version string:                    CP2K version 7.0 (Development Version)
 CP2K| source code revision number:                                             
 CP2K| cp2kflags: libint fftw3 libxc parallel mpi3 scalapack xsmm libderiv_max_a
 CP2K|            m1=8 libint_max_am=9 max_contr=4
 CP2K| is freely available from                            https://www.cp2k.org/
 CP2K| Program compiled at                         Sun Jun 24 14:37:16 CEST 2018
 CP2K| Program compiled on                                            sebstorage
 CP2K| Program compiled for                                Linux-x86-64-gfortran
 CP2K| Data directory path    /home/brehm/Software_Batchnode/2018/Source/cp2k_18
 CP2K| Input file name                                         input.zig-zag.inp

 GLOBAL| Force Environment number                                              1
 GLOBAL| Basis set file name                                      ./BASIS_MOLOPT
 GLOBAL| Potential file name                                    ./GTH_POTENTIALS
 GLOBAL| MM Potential file name                                     MM_POTENTIAL
 GLOBAL| Coordinate file name           graphene_zig-zag_no-hydrogen_sodium_rela
 GLOBAL| Method name                                                        CP2K
 GLOBAL| Project name                               graphene_zig_zag_sodium_BSSE
 GLOBAL| Preferred FFT library                                             FFTW3
 GLOBAL| Preferred diagonalization lib.                                       SL
 GLOBAL| Run type                                                           BSSE
 GLOBAL| All-to-all communication in single precision                          F
 GLOBAL| FFTs using library dependent lengths                                  F
 GLOBAL| Global print level                                               MEDIUM
 GLOBAL| Total number of message passing processes                            16
 GLOBAL| Number of threads for this process                                    1
 GLOBAL| This output is from process                                           0
 GLOBAL| CPU model name :  Intel(R) Xeon(R) CPU E5-2630 v3 @ 2.40GHz

 MEMORY| system memory details [Kb]
 MEMORY|                        rank 0           min           max       average
 MEMORY| MemTotal             65838216      65838216      65838216      65838216
 MEMORY| MemFree              33951752      33951752      33951752      33951752
 MEMORY| Buffers                212280        212280        212280        212280
 MEMORY| Cached               14855288      14855288      14855288      14855288
 MEMORY| Slab                   844436        844436        844436        844436
 MEMORY| SReclaimable           593204        593204        593204        593204
 MEMORY| MemLikelyFree        49612524      49612524      49612524      49612524


 *** Fundamental physical constants (SI units) ***

 *** Literature: B. J. Mohr and B. N. Taylor,
 ***             CODATA recommended values of the fundamental physical
 ***             constants: 2006, Web Version 5.1
 ***             http://physics.nist.gov/constants

 Speed of light in vacuum [m/s]                             2.99792458000000E+08
 Magnetic constant or permeability of vacuum [N/A**2]       1.25663706143592E-06
 Electric constant or permittivity of vacuum [F/m]          8.85418781762039E-12
 Planck constant (h) [J*s]                                  6.62606896000000E-34
 Planck constant (h-bar) [J*s]                              1.05457162825177E-34
 Elementary charge [C]                                      1.60217648700000E-19
 Electron mass [kg]                                         9.10938215000000E-31
 Electron g factor [ ]                                     -2.00231930436220E+00
 Proton mass [kg]                                           1.67262163700000E-27
 Fine-structure constant                                    7.29735253760000E-03
 Rydberg constant [1/m]                                     1.09737315685270E+07
 Avogadro constant [1/mol]                                  6.02214179000000E+23
 Boltzmann constant [J/K]                                   1.38065040000000E-23
 Atomic mass unit [kg]                                      1.66053878200000E-27
 Bohr radius [m]                                            5.29177208590000E-11

 *** Conversion factors ***

 [u] -> [a.u.]                                              1.82288848426455E+03
 [Angstrom] -> [Bohr] = [a.u.]                              1.88972613288564E+00
 [a.u.] = [Bohr] -> [Angstrom]                              5.29177208590000E-01
 [a.u.] -> [s]                                              2.41888432650478E-17
 [a.u.] -> [fs]                                             2.41888432650478E-02
 [a.u.] -> [J]                                              4.35974393937059E-18
 [a.u.] -> [N]                                              8.23872205491840E-08
 [a.u.] -> [K]                                              3.15774647902944E+05
 [a.u.] -> [kJ/mol]                                         2.62549961709828E+03
 [a.u.] -> [kcal/mol]                                       6.27509468713739E+02
 [a.u.] -> [Pa]                                             2.94210107994716E+13
 [a.u.] -> [bar]                                            2.94210107994716E+08
 [a.u.] -> [atm]                                            2.90362800883016E+08
 [a.u.] -> [eV]                                             2.72113838565563E+01
 [a.u.] -> [Hz]                                             6.57968392072181E+15
 [a.u.] -> [1/cm] (wave numbers)                            2.19474631370540E+05
 [a.u./Bohr**2] -> [1/cm]                                   5.14048714338585E+03
 

 CELL_TOP| Volume [angstrom^3]:                                         5900.012
 CELL_TOP| Vector a [angstrom    19.648     0.000     0.000    |a| =      19.648
 CELL_TOP| Vector b [angstrom     8.669    15.014     0.000    |b| =      17.337
 CELL_TOP| Vector c [angstrom     0.000     0.000    20.000    |c| =      20.000
 CELL_TOP| Angle (b,c), alpha [degree]:                                   90.000
 CELL_TOP| Angle (a,c), beta  [degree]:                                   90.000
 CELL_TOP| Angle (a,b), gamma [degree]:                                   60.000
 CELL_TOP| Requested initial symmetry:                                 TRICLINIC
 CELL_TOP| Numerically orthorhombic:                                          NO

 GENERATE|  Preliminary Number of Bonds generated:                             0
 GENERATE|  Achieved consistency in connectivity generation.

 CELL| Volume [angstrom^3]:                                             5900.012
 CELL| Vector a [angstrom]:      19.648     0.000     0.000    |a| =      19.648
 CELL| Vector b [angstrom]:       8.669    15.014     0.000    |b| =      17.337
 CELL| Vector c [angstrom]:       0.000     0.000    20.000    |c| =      20.000
 CELL| Angle (b,c), alpha [degree]:                                       90.000
 CELL| Angle (a,c), beta  [degree]:                                       90.000
 CELL| Angle (a,b), gamma [degree]:                                       60.000
 CELL| Requested initial symmetry:                                     TRICLINIC
 CELL| Numerically orthorhombic:                                              NO

 CELL_REF| Volume [angstrom^3]:                                         5900.012
 CELL_REF| Vector a [angstrom    19.648     0.000     0.000    |a| =      19.648
 CELL_REF| Vector b [angstrom     8.669    15.014     0.000    |b| =      17.337
 CELL_REF| Vector c [angstrom     0.000     0.000    20.000    |c| =      20.000
 CELL_REF| Angle (b,c), alpha [degree]:                                   90.000
 CELL_REF| Angle (a,c), beta  [degree]:                                   90.000
 CELL_REF| Angle (a,b), gamma [degree]:                                   60.000
 CELL_REF| Requested initial symmetry:                                 TRICLINIC
 CELL_REF| Numerically orthorhombic:                                          NO

 *******************************************************************************
 *******************************************************************************
 **                                                                           **
 **     #####                         ##              ##                      **
 **    ##   ##            ##          ##              ##                      **
 **   ##     ##                       ##            ######                    **
 **   ##     ##  ##   ##  ##   #####  ##  ##   ####   ##    #####    #####    **
 **   ##     ##  ##   ##  ##  ##      ## ##   ##      ##   ##   ##  ##   ##   **
 **   ##  ## ##  ##   ##  ##  ##      ####     ###    ##   ######   ######    **
 **    ##  ###   ##   ##  ##  ##      ## ##      ##   ##   ##       ##        **
 **     #######   #####   ##   #####  ##  ##  ####    ##    #####   ##        **
 **           ##                                                    ##        **
 **                                                                           **
 **                                                ... make the atoms dance   **
 **                                                                           **
 **            Copyright (C) by CP2K developers group (2000 - 2018)           **
 **                                                                           **
 *******************************************************************************

 DFT| Spin unrestricted (spin-polarized) Kohn-Sham calculation               UKS
 DFT| Multiplicity                                                             1
 DFT| Number of spin states                                                    2
 DFT| Charge                                                                   1
 DFT| Self-interaction correction (SIC)                                       NO
 DFT| Cutoffs: density                                              1.000000E-10
 DFT|          gradient                                             1.000000E-10
 DFT|          tau                                                  1.000000E-10
 DFT|          cutoff_smoothing_range                               0.000000E+00
 DFT| XC density smoothing                                                  NONE
 DFT| XC derivatives                                              SPLINE2_SMOOTH
 FUNCTIONAL| ROUTINE=NEW
 FUNCTIONAL| BECKE88:
 FUNCTIONAL| A. Becke, Phys. Rev. A 38, 3098 (1988) {LSD version}               
 FUNCTIONAL| LYP:
 FUNCTIONAL| C. Lee, W. Yang, R.G. Parr, Phys. Rev. B, 37, 785 (1988) {LSD versi
 FUNCTIONAL| on}                                                                
 vdW POTENTIAL|                                                   Pair Potential
 vdW POTENTIAL|          DFT-D3 (Version 3.1)
 vdW POTENTIAL|          Potential Form: S. Grimme et al, JCP 132: 154104 (2010)
 vdW POTENTIAL|          Zero Damping
 vdW POTENTIAL|          Cutoff Radius [Bohr]:                             20.00
 vdW POTENTIAL|          s6 Scaling Factor:                               1.0000
 vdW POTENTIAL|          sr6 Scaling Factor:                              1.0940
 vdW POTENTIAL|          s8 Scaling Factor:                               1.6820
 vdW POTENTIAL|          Cutoff for CN calculation:                   0.1000E-05

 QS| Method:                                                                 GPW
 QS| Density plane wave grid type                        NON-SPHERICAL FULLSPACE
 QS| Number of grid levels:                                                    4
 QS| Density cutoff [a.u.]:                                                150.0
 QS| Multi grid cutoff [a.u.]: 1) grid level                               150.0
 QS|                           2) grid level                                50.0
 QS|                           3) grid level                                16.7
 QS|                           4) grid level                                 5.6
 QS| Grid level progression factor:                                          3.0
 QS| Relative density cutoff [a.u.]:                                        20.0
 QS| Consistent realspace mapping and integration 
 QS| Interaction thresholds: eps_pgf_orb:                                1.0E-06
 QS|                         eps_filter_matrix:                          0.0E+00
 QS|                         eps_core_charge:                            1.0E-14
 QS|                         eps_rho_gspace:                             1.0E-12
 QS|                         eps_rho_rspace:                             1.0E-12
 QS|                         eps_gvg_rspace:                             1.0E-06
 QS|                         eps_ppl:                                    1.0E-02
 QS|                         eps_ppnl:                                   1.0E-08


 ATOMIC KIND INFORMATION

  1. Atomic kind: C                                     Number of atoms:     112

     Orbital Basis Set                                        DZVP-MOLOPT-SR-GTH

       Number of orbital shell sets:                                           1
       Number of orbital shells:                                               5
       Number of primitive Cartesian functions:                                5
       Number of Cartesian basis functions:                                   14
       Number of spherical basis functions:                                   13
       Norm type:                                                              2

       Normalised Cartesian orbitals:

                        Set   Shell   Orbital            Exponent    Coefficient

                          1       1    2s                5.605331       0.322515
                                                         2.113016       0.213043
                                                         0.769911      -0.209686
                                                         0.348157      -0.219794
                                                         0.128212      -0.022789

                          1       2    3s                5.605331       0.552234
                                                         2.113016       0.082072
                                                         0.769911       0.007843
                                                         0.348157       0.136893
                                                         0.128212       0.074283

                          1       3    3px               5.605331      -0.703879
                                                         2.113016      -0.642521
                                                         0.769911      -0.374851
                                                         0.348157      -0.139743
                                                         0.128212      -0.027849
                          1       3    3py               5.605331      -0.703879
                                                         2.113016      -0.642521
                                                         0.769911      -0.374851
                                                         0.348157      -0.139743
                                                         0.128212      -0.027849
                          1       3    3pz               5.605331      -0.703879
                                                         2.113016      -0.642521
                                                         0.769911      -0.374851
                                                         0.348157      -0.139743
                                                         0.128212      -0.027849

                          1       4    4px               5.605331      -0.480376
                                                         2.113016      -0.552894
                                                         0.769911      -0.316145
                                                         0.348157       0.210505
                                                         0.128212       0.076095
                          1       4    4py               5.605331      -0.480376
                                                         2.113016      -0.552894
                                                         0.769911      -0.316145
                                                         0.348157       0.210505
                                                         0.128212       0.076095
                          1       4    4pz               5.605331      -0.480376
                                                         2.113016      -0.552894
                                                         0.769911      -0.316145
                                                         0.348157       0.210505
                                                         0.128212       0.076095

                          1       5    4dx2              5.605331       0.640026
                                                         2.113016       0.274300
                                                         0.769911       0.446711
                                                         0.348157       0.028674
                                                         0.128212       0.029790
                          1       5    4dxy              5.605331       1.108557
                                                         2.113016       0.475102
                                                         0.769911       0.773726
                                                         0.348157       0.049666
                                                         0.128212       0.051599
                          1       5    4dxz              5.605331       1.108557
                                                         2.113016       0.475102
                                                         0.769911       0.773726
                                                         0.348157       0.049666
                                                         0.128212       0.051599
                          1       5    4dy2              5.605331       0.640026
                                                         2.113016       0.274300
                                                         0.769911       0.446711
                                                         0.348157       0.028674
                                                         0.128212       0.029790
                          1       5    4dyz              5.605331       1.108557
                                                         2.113016       0.475102
                                                         0.769911       0.773726
                                                         0.348157       0.049666
                                                         0.128212       0.051599
                          1       5    4dz2              5.605331       0.640026
                                                         2.113016       0.274300
                                                         0.769911       0.446711
                                                         0.348157       0.028674
                                                         0.128212       0.029790

     GTH Potential information for                                    GTH-PBE-q4

       Description:                       Goedecker-Teter-Hutter pseudopotential
                                           Goedecker et al., PRB 54, 1703 (1996)
                                          Hartwigsen et al., PRB 58, 3641 (1998)
                                                      Krack, TCA 114, 145 (2005)

       Gaussian exponent of the core charge distribution:               4.364419
       Electronic configuration (s p d ...):                               2   2

       Parameters of the local part of the GTH pseudopotential:

                          rloc        C1          C2          C3          C4
                        0.338471   -8.803674    1.339211

       Parameters of the non-local part of the GTH pseudopotential:

                   l      r(l)      h(i,j,l)

                   0    0.302576    9.622487
                   1    0.291507

  2. Atomic kind: Na                                    Number of atoms:       1

     Orbital Basis Set                                        DZVP-MOLOPT-SR-GTH

       Number of orbital shell sets:                                           1
       Number of orbital shells:                                               5
       Number of primitive Cartesian functions:                                7
       Number of Cartesian basis functions:                                    9
       Number of spherical basis functions:                                    9
       Norm type:                                                              2

       Normalised Cartesian orbitals:

                        Set   Shell   Orbital            Exponent    Coefficient

                          1       1    2s               23.518801       0.288931
                                                        11.135656       0.787174
                                                         4.647814      -0.190850
                                                         1.866708      -0.573823
                                                         0.734684      -0.276866
                                                         0.275673      -0.024211
                                                         0.049895      -0.000019

                          1       2    3s               23.518801       0.039212
                                                        11.135656       0.138585
                                                         4.647814      -0.048916
                                                         1.866708      -0.102378
                                                         0.734684      -0.139633
                                                         0.275673       0.012767
                                                         0.049895       0.077569

                          1       3    4s               23.518801       0.303698
                                                        11.135656      -0.548845
                                                         4.647814       0.534441
                                                         1.866708      -0.220920
                                                         0.734684       0.980584
                                                         0.275673      -0.653367
                                                         0.049895       0.063703

                          1       4    3px              23.518801      -2.919466
                                                        11.135656      -2.855941
                                                         4.647814      -2.579491
                                                         1.866708      -1.208264
                                                         0.734684      -0.321406
                                                         0.275673      -0.035032
                                                         0.049895      -0.000067
                          1       4    3py              23.518801      -2.919466
                                                        11.135656      -2.855941
                                                         4.647814      -2.579491
                                                         1.866708      -1.208264
                                                         0.734684      -0.321406
                                                         0.275673      -0.035032
                                                         0.049895      -0.000067
                          1       4    3pz              23.518801      -2.919466
                                                        11.135656      -2.855941
                                                         4.647814      -2.579491
                                                         1.866708      -1.208264
                                                         0.734684      -0.321406
                                                         0.275673      -0.035032
                                                         0.049895      -0.000067

                          1       5    4px              23.518801      -0.381914
                                                        11.135656      -0.488169
                                                         4.647814      -0.407378
                                                         1.866708      -0.201739
                                                         0.734684      -0.078845
                                                         0.275673       0.043427
                                                         0.049895       0.031563
                          1       5    4py              23.518801      -0.381914
                                                        11.135656      -0.488169
                                                         4.647814      -0.407378
                                                         1.866708      -0.201739
                                                         0.734684      -0.078845
                                                         0.275673       0.043427
                                                         0.049895       0.031563
                          1       5    4pz              23.518801      -0.381914
                                                        11.135656      -0.488169
                                                         4.647814      -0.407378
                                                         1.866708      -0.201739
                                                         0.734684      -0.078845
                                                         0.275673       0.043427
                                                         0.049895       0.031563

     GTH Potential information for                                    GTH-PBE-q9

       Description:                       Goedecker-Teter-Hutter pseudopotential
                                           Goedecker et al., PRB 54, 1703 (1996)
                                          Hartwigsen et al., PRB 58, 3641 (1998)
                                                      Krack, TCA 114, 145 (2005)

       Gaussian exponent of the core charge distribution:               8.937631
       Electronic configuration (s p d ...):                               3   6

       Parameters of the local part of the GTH pseudopotential:

                          rloc        C1          C2          C3          C4
                        0.236523    0.295105   -0.913885

       Parameters of the non-local part of the GTH pseudopotential:

                   l      r(l)      h(i,j,l)

                   0    0.143560   34.601492
                   1    0.129932  -14.277462


 MOLECULE KIND INFORMATION


 All atoms are their own molecule, skipping detailed information


 TOTAL NUMBERS AND MAXIMUM NUMBERS

  Total number of            - Atomic kinds:                                   2
                             - Atoms:                                        113
                             - Shell sets:                                   113
                             - Shells:                                       565
                             - Primitive Cartesian functions:                567
                             - Cartesian basis functions:                   1577
                             - Spherical basis functions:                   1465

  Maximum angular momentum of- Orbital basis functions:                        2
                             - Local part of the GTH pseudopotential:          2
                             - Non-local part of the GTH pseudopotential:      1


 MODULE QUICKSTEP:  ATOMIC COORDINATES IN angstrom

  Atom  Kind  Element       X           Y           Z          Z(eff)       Mass

       1     1 C    6    8.621666   14.934136    0.050429      4.00      12.0107
       2     1 C    6    9.850696   15.653800    0.048394      4.00      12.0107
       3     1 C    6   11.077890   14.935535    0.048493      4.00      12.0107
       4     1 C    6   12.307672   15.654283    0.025262      4.00      12.0107
       5     1 C    6   13.535108   14.935994    0.000613      4.00      12.0107
       6     1 C    6   14.764527   15.654132   -0.029478      4.00      12.0107
       7     1 C    6   15.991542   14.935562   -0.048778      4.00      12.0107
       8     1 C    6   17.220922   15.653954   -0.062455      4.00      12.0107
       9     1 C    6   18.447700   14.935857   -0.093710      4.00      12.0107
      10     1 C    6   19.677305   15.653356   -0.109344      4.00      12.0107
      11     1 C    6   20.903663   14.933609   -0.130778      4.00      12.0107
      12     1 C    6   22.132815   15.653254   -0.113220      4.00      12.0107
      13     1 C    6   23.359533   14.935211   -0.092320      4.00      12.0107
      14     1 C    6   24.588311   15.653298   -0.045861      4.00      12.0107
      15     1 C    6   25.814953   14.935231   -0.000578      4.00      12.0107
      16     1 C    6   27.043378   15.653502    0.028613      4.00      12.0107
      17     1 C    6   25.802112   13.508010   -0.003326      4.00      12.0107
      18     1 C    6   23.348289   13.508012   -0.098258      4.00      12.0107
      19     1 C    6   20.893791   13.507774   -0.143591      4.00      12.0107
      20     1 C    6   18.437946   13.509945   -0.116731      4.00      12.0107
      21     1 C    6   15.982382   13.510576   -0.057182      4.00      12.0107
      22     1 C    6   14.752504   12.792971   -0.031733      4.00      12.0107
      23     1 C    6   13.524371   13.510699    0.004413      4.00      12.0107
      24     1 C    6   12.294179   12.792883    0.034143      4.00      12.0107
      25     1 C    6   11.066414   13.510420    0.054116      4.00      12.0107
      26     1 C    6    9.837154   12.790130    0.060132      4.00      12.0107
      27     1 C    6    8.609916   13.508694    0.054834      4.00      12.0107
      28     1 C    6    7.380676   12.788689    0.033140      4.00      12.0107
      29     1 C    6   24.573794   12.787167   -0.052307      4.00      12.0107
      30     1 C    6   22.120373   12.787468   -0.132588      4.00      12.0107
      31     1 C    6   19.664264   12.789284   -0.142189      4.00      12.0107
      32     1 C    6   17.208903   12.791016   -0.094834      4.00      12.0107
      33     1 C    6   24.562999   11.360289   -0.054272      4.00      12.0107
      34     1 C    6   23.333863   10.637139   -0.092356      4.00      12.0107
      35     1 C    6   22.110267   11.360948   -0.129058      4.00      12.0107
      36     1 C    6   20.881548   10.642496   -0.140132      4.00      12.0107
      37     1 C    6   19.655694   11.363292   -0.143952      4.00      12.0107
      38     1 C    6   18.427367   10.644127   -0.126155      4.00      12.0107
      39     1 C    6   17.201924   11.365607   -0.101001      4.00      12.0107
      40     1 C    6   15.973066   10.646327   -0.069511      4.00      12.0107
      41     1 C    6   14.745947   11.367809   -0.041882      4.00      12.0107
      42     1 C    6   13.513476   10.650441   -0.022942      4.00      12.0107
      43     1 C    6   12.283182   11.367753    0.022146      4.00      12.0107
      44     1 C    6   11.053487   10.645495    0.036468      4.00      12.0107
      45     1 C    6    9.826073   11.364382    0.053798      4.00      12.0107
      46     1 C    6    8.597258   10.643461    0.040628      4.00      12.0107
      47     1 C    6    7.370535   11.362959    0.025515      4.00      12.0107
      48     1 C    6    6.142342   10.642278   -0.018566      4.00      12.0107
      49     1 C    6    6.132451    9.216798   -0.029511      4.00      12.0107
      50     1 C    6    7.358770    8.497429   -0.013891      4.00      12.0107
      51     1 C    6    8.586544    9.217661    0.018784      4.00      12.0107
      52     1 C    6    9.812863    8.497442    0.009852      4.00      12.0107
      53     1 C    6   11.040825    9.218699    0.013101      4.00      12.0107
      54     1 C    6   12.268592    8.496248   -0.023156      4.00      12.0107
      55     1 C    6   13.503029    9.219208   -0.041340      4.00      12.0107
      56     1 C    6   14.735632    8.496516   -0.051726      4.00      12.0107
      57     1 C    6   15.964913    9.219543   -0.063903      4.00      12.0107
      58     1 C    6   17.190273    8.497736   -0.075592      4.00      12.0107
      59     1 C    6   18.417760    9.218239   -0.110217      4.00      12.0107
      60     1 C    6   19.643466    8.497415   -0.109871      4.00      12.0107
      61     1 C    6   20.871629    9.216682   -0.121614      4.00      12.0107
      62     1 C    6   22.096875    8.495473   -0.092675      4.00      12.0107
      63     1 C    6   23.325147    9.213879   -0.078838      4.00      12.0107
      64     1 C    6   22.089085    7.071236   -0.067773      4.00      12.0107
      65     1 C    6   20.860948    6.352370   -0.061567      4.00      12.0107
      66     1 C    6   19.634688    7.072463   -0.076010      4.00      12.0107
      67     1 C    6   18.406617    6.352667   -0.058385      4.00      12.0107
      68     1 C    6   17.179990    7.072063   -0.059298      4.00      12.0107
      69     1 C    6   15.951855    6.351056   -0.048185      4.00      12.0107
      70     1 C    6   14.723875    7.068778   -0.048352      4.00      12.0107
      71     1 C    6   13.492744    6.350362   -0.045405      4.00      12.0107
      72     1 C    6   12.263419    7.068607   -0.036230      4.00      12.0107
      73     1 C    6   11.033590    6.351242   -0.034051      4.00      12.0107
      74     1 C    6    9.807006    7.072088   -0.021079      4.00      12.0107
      75     1 C    6    8.578603    6.352763   -0.033177      4.00      12.0107
      76     1 C    6    7.351729    7.072291   -0.032307      4.00      12.0107
      77     1 C    6    6.123492    6.352746   -0.043849      4.00      12.0107
      78     1 C    6    4.896627    7.071691   -0.049791      4.00      12.0107
      79     1 C    6    4.904653    8.496525   -0.052452      4.00      12.0107
      80     1 C    6    3.668130    6.352404   -0.052664      4.00      12.0107
      81     1 C    6    3.658782    4.927485   -0.040546      4.00      12.0107
      82     1 C    6    4.885800    4.208628   -0.038731      4.00      12.0107
      83     1 C    6    6.114764    4.927590   -0.044847      4.00      12.0107
      84     1 C    6    7.341642    4.208590   -0.045387      4.00      12.0107
      85     1 C    6    8.570607    4.927294   -0.043452      4.00      12.0107
      86     1 C    6    9.797260    4.207734   -0.047973      4.00      12.0107
      87     1 C    6   11.026324    4.925959   -0.045793      4.00      12.0107
      88     1 C    6   12.253698    4.207406   -0.053584      4.00      12.0107
      89     1 C    6   13.483596    4.925163   -0.048846      4.00      12.0107
      90     1 C    6   14.711293    4.207215   -0.049864      4.00      12.0107
      91     1 C    6   15.940657    4.925855   -0.044988      4.00      12.0107
      92     1 C    6   17.167654    4.207585   -0.037612      4.00      12.0107
      93     1 C    6   18.396049    4.927302   -0.040846      4.00      12.0107
      94     1 C    6   19.622620    4.208241   -0.027379      4.00      12.0107
      95     1 C    6   20.851120    4.927412   -0.038830      4.00      12.0107
      96     1 C    6   19.613071    2.783485    0.006105      4.00      12.0107
      97     1 C    6   18.384822    2.064275    0.007854      4.00      12.0107
      98     1 C    6   17.157900    2.782653   -0.024415      4.00      12.0107
      99     1 C    6   15.929201    2.063862   -0.044059      4.00      12.0107
     100     1 C    6   14.702092    2.782378   -0.060158      4.00      12.0107
     101     1 C    6   13.473091    2.063949   -0.084079      4.00      12.0107
     102     1 C    6   12.245795    2.782562   -0.073229      4.00      12.0107
     103     1 C    6   11.016942    2.064078   -0.080290      4.00      12.0107
     104     1 C    6    9.789671    2.782721   -0.059167      4.00      12.0107
     105     1 C    6    8.560497    2.064563   -0.053946      4.00      12.0107
     106     1 C    6    6.104413    2.064841   -0.034528      4.00      12.0107
     107     1 C    6    7.333504    2.783514   -0.045351      4.00      12.0107
     108     1 C    6    4.877194    2.783661   -0.024859      4.00      12.0107
     109     1 C    6    3.648326    2.064979    0.004638      4.00      12.0107
     110     1 C    6    2.420777    2.783621    0.004209      4.00      12.0107
     111     1 C    6    2.429919    4.208412   -0.027642      4.00      12.0107
     112     1 C    6    1.192088    2.064617    0.025704      4.00      12.0107
     113     2 Na  11   13.515396    9.128315    2.546311      9.00      22.9898




 SCF PARAMETERS         Density guess:                                    ATOMIC
                        --------------------------------------------------------
                        max_scf:                                             100
                        max_scf_history:                                       0
                        max_diis:                                              4
                        --------------------------------------------------------
                        eps_scf:                                        3.00E-07
                        eps_scf_history:                                0.00E+00
                        eps_diis:                                       1.00E-01
                        eps_eigval:                                     1.00E-05
                        --------------------------------------------------------
                        level_shift [a.u.]:                                 0.00
                        added MOs                                       100  100
                        --------------------------------------------------------
                        Mixing method:                            BROYDEN_MIXING
                                                charge density mixing in g-space
                        --------------------------------------------------------
                        Smear method:                                FERMI_DIRAC
                        Electronic temperature [K]:                        300.0
                        Electronic temperature [a.u.]:                  9.50E-04
                        Accuracy threshold:                             1.00E-10
                        --------------------------------------------------------
                        Outer loop SCF in use 
                        No variables optimised in outer loop
                        eps_scf                                         1.00E-06
                        max_scf                                               30
                        DIIS optimization
                        DIIS buffer length                                     3
                        step_size                                       5.00E-01

 PW_GRID| Information for grid number                                          1
 PW_GRID| Grid distributed over                                    16 processors
 PW_GRID| Real space group dimensions                                    16    1
 PW_GRID| the grid is blocked:                                                NO
 PW_GRID| Cutoff [a.u.]                                                    150.0
 PW_GRID| spherical cutoff:                                                   NO
 PW_GRID|   Bounds   1           -108     107                Points:         216
 PW_GRID|   Bounds   2            -96      95                Points:         192
 PW_GRID|   Bounds   3           -108     107                Points:         216
 PW_GRID| Volume element (a.u.^3)  0.4445E-02     Volume (a.u.^3)     39815.2579
 PW_GRID| Grid span                                                    FULLSPACE
 PW_GRID|   Distribution                         Average         Max         Min
 PW_GRID|   G-Vectors                           559872.0      559872      559872
 PW_GRID|   G-Rays                                2592.0        2592        2592
 PW_GRID|   Real Space Points                   559872.0      580608      539136

 PW_GRID| Information for grid number                                          2
 PW_GRID| Grid distributed over                                    16 processors
 PW_GRID| Real space group dimensions                                    16    1
 PW_GRID| the grid is blocked:                                                NO
 PW_GRID| Cutoff [a.u.]                                                     50.0
 PW_GRID| spherical cutoff:                                                   NO
 PW_GRID|   Bounds   1            -60      59                Points:         120
 PW_GRID|   Bounds   2            -54      53                Points:         108
 PW_GRID|   Bounds   3            -62      62                Points:         125
 PW_GRID| Volume element (a.u.^3)  0.2458E-01     Volume (a.u.^3)     39815.2579
 PW_GRID| Grid span                                                    FULLSPACE
 PW_GRID|   Distribution                         Average         Max         Min
 PW_GRID|   G-Vectors                           101250.0      102000      100680
 PW_GRID|   G-Rays                                 843.8         850         839
 PW_GRID|   Real Space Points                   101250.0      108000       94500

 PW_GRID| Information for grid number                                          3
 PW_GRID| Grid distributed over                                    16 processors
 PW_GRID| Real space group dimensions                                    16    1
 PW_GRID| the grid is blocked:                                                NO
 PW_GRID| Cutoff [a.u.]                                                     16.7
 PW_GRID| spherical cutoff:                                                   NO
 PW_GRID|   Bounds   1            -36      35                Points:          72
 PW_GRID|   Bounds   2            -32      31                Points:          64
 PW_GRID|   Bounds   3            -36      35                Points:          72
 PW_GRID| Volume element (a.u.^3)  0.1200         Volume (a.u.^3)     39815.2579
 PW_GRID| Grid span                                                    FULLSPACE
 PW_GRID|   Distribution                         Average         Max         Min
 PW_GRID|   G-Vectors                            20736.0       20808       20664
 PW_GRID|   G-Rays                                 288.0         289         287
 PW_GRID|   Real Space Points                    20736.0       23040       18432

 PW_GRID| Information for grid number                                          4
 PW_GRID| Grid distributed over                                    16 processors
 PW_GRID| Real space group dimensions                                    16    1
 PW_GRID| the grid is blocked:                                                NO
 PW_GRID| Cutoff [a.u.]                                                      5.6
 PW_GRID| spherical cutoff:                                                   NO
 PW_GRID|   Bounds   1            -20      19                Points:          40
 PW_GRID|   Bounds   2            -18      17                Points:          36
 PW_GRID|   Bounds   3            -22      22                Points:          45
 PW_GRID| Volume element (a.u.^3)  0.6144         Volume (a.u.^3)     39815.2579
 PW_GRID| Grid span                                                    FULLSPACE
 PW_GRID|   Distribution                         Average         Max         Min
 PW_GRID|   G-Vectors                             4050.0        4120        3960
 PW_GRID|   G-Rays                                 101.2         103          99
 PW_GRID|   Real Space Points                     4050.0        4860        3240

 POISSON| Solver                                                        PERIODIC
 POISSON| Periodicity                                                        XYZ

 RS_GRID| Information for grid number                                          1
 RS_GRID|   Bounds   1           -108     107                Points:         216
 RS_GRID|   Bounds   2            -96      95                Points:         192
 RS_GRID|   Bounds   3           -108     107                Points:         216
 RS_GRID| Real space distribution over                                  4 groups
 RS_GRID| Real space distribution along direction                              1
 RS_GRID| Border size                                                         35
 RS_GRID| Real space distribution over                                  4 groups
 RS_GRID| Real space distribution along direction                              3
 RS_GRID| Border size                                                         35
 RS_GRID|   Distribution                         Average         Max         Min
 RS_GRID|   Planes                                 124.0         124         124
 RS_GRID|   Distribution                         Average         Max         Min
 RS_GRID|   Planes                                 124.0         124         124

 RS_GRID| Information for grid number                                          2
 RS_GRID|   Bounds   1            -60      59                Points:         120
 RS_GRID|   Bounds   2            -54      53                Points:         108
 RS_GRID|   Bounds   3            -62      62                Points:         125
 RS_GRID| Real space fully replicated
 RS_GRID| Group size                                                           1

 RS_GRID| Information for grid number                                          3
 RS_GRID|   Bounds   1            -36      35                Points:          72
 RS_GRID|   Bounds   2            -32      31                Points:          64
 RS_GRID|   Bounds   3            -36      35                Points:          72
 RS_GRID| Real space fully replicated
 RS_GRID| Group size                                                           1

 RS_GRID| Information for grid number                                          4
 RS_GRID|   Bounds   1            -20      19                Points:          40
 RS_GRID|   Bounds   2            -18      17                Points:          36
 RS_GRID|   Bounds   3            -22      22                Points:          45
 RS_GRID| Real space fully replicated
 RS_GRID| Group size                                                           1

 -------------------------------------------------------------------------------
 -                                                                             -
 -  BSSE CALCULATION         FRAGMENT CONF: 10        FRAGMENT SUBCONF: 10     -
 -                           CHARGE =     0           MULTIPLICITY =     0     -
 -                                                                             -
 -                 ATOM INDEX                              ATOM NAME           -
 -                 ----------                              ---------           -
 -                      1                                   C                  -
 -                      2                                   C                  -
 -                      3                                   C                  -
 -                      4                                   C                  -
 -                      5                                   C                  -
 -                      6                                   C                  -
 -                      7                                   C                  -
 -                      8                                   C                  -
 -                      9                                   C                  -
 -                     10                                   C                  -
 -                     11                                   C                  -
 -                     12                                   C                  -
 -                     13                                   C                  -
 -                     14                                   C                  -
 -                     15                                   C                  -
 -                     16                                   C                  -
 -                     17                                   C                  -
 -                     18                                   C                  -
 -                     19                                   C                  -
 -                     20                                   C                  -
 -                     21                                   C                  -
 -                     22                                   C                  -
 -                     23                                   C                  -
 -                     24                                   C                  -
 -                     25                                   C                  -
 -                     26                                   C                  -
 -                     27                                   C                  -
 -                     28                                   C                  -
 -                     29                                   C                  -
 -                     30                                   C                  -
 -                     31                                   C                  -
 -                     32                                   C                  -
 -                     33                                   C                  -
 -                     34                                   C                  -
 -                     35                                   C                  -
 -                     36                                   C                  -
 -                     37                                   C                  -
 -                     38                                   C                  -
 -                     39                                   C                  -
 -                     40                                   C                  -
 -                     41                                   C                  -
 -                     42                                   C                  -
 -                     43                                   C                  -
 -                     44                                   C                  -
 -                     45                                   C                  -
 -                     46                                   C                  -
 -                     47                                   C                  -
 -                     48                                   C                  -
 -                     49                                   C                  -
 -                     50                                   C                  -
 -                     51                                   C                  -
 -                     52                                   C                  -
 -                     53                                   C                  -
 -                     54                                   C                  -
 -                     55                                   C                  -
 -                     56                                   C                  -
 -                     57                                   C                  -
 -                     58                                   C                  -
 -                     59                                   C                  -
 -                     60                                   C                  -
 -                     61                                   C                  -
 -                     62                                   C                  -
 -                     63                                   C                  -
 -                     64                                   C                  -
 -                     65                                   C                  -
 -                     66                                   C                  -
 -                     67                                   C                  -
 -                     68                                   C                  -
 -                     69                                   C                  -
 -                     70                                   C                  -
 -                     71                                   C                  -
 -                     72                                   C                  -
 -                     73                                   C                  -
 -                     74                                   C                  -
 -                     75                                   C                  -
 -                     76                                   C                  -
 -                     77                                   C                  -
 -                     78                                   C                  -
 -                     79                                   C                  -
 -                     80                                   C                  -
 -                     81                                   C                  -
 -                     82                                   C                  -
 -                     83                                   C                  -
 -                     84                                   C                  -
 -                     85                                   C                  -
 -                     86                                   C                  -
 -                     87                                   C                  -
 -                     88                                   C                  -
 -                     89                                   C                  -
 -                     90                                   C                  -
 -                     91                                   C                  -
 -                     92                                   C                  -
 -                     93                                   C                  -
 -                     94                                   C                  -
 -                     95                                   C                  -
 -                     96                                   C                  -
 -                     97                                   C                  -
 -                     98                                   C                  -
 -                     99                                   C                  -
 -                    100                                   C                  -
 -                    101                                   C                  -
 -                    102                                   C                  -
 -                    103                                   C                  -
 -                    104                                   C                  -
 -                    105                                   C                  -
 -                    106                                   C                  -
 -                    107                                   C                  -
 -                    108                                   C                  -
 -                    109                                   C                  -
 -                    110                                   C                  -
 -                    111                                   C                  -
 -                    112                                   C                  -
 -------------------------------------------------------------------------------

 CELL| Volume [angstrom^3]:                                             5900.012
 CELL| Vector a [angstrom]:      19.648     0.000     0.000    |a| =      19.648
 CELL| Vector b [angstrom]:       8.669    15.014     0.000    |b| =      17.337
 CELL| Vector c [angstrom]:       0.000     0.000    20.000    |c| =      20.000
 CELL| Angle (b,c), alpha [degree]:                                       90.000
 CELL| Angle (a,c), beta  [degree]:                                       90.000
 CELL| Angle (a,b), gamma [degree]:                                       60.000
 CELL| Requested initial symmetry:                                     TRICLINIC
 CELL| Numerically orthorhombic:                                              NO

 CELL_REF| Volume [angstrom^3]:                                         5900.012
 CELL_REF| Vector a [angstrom    19.648     0.000     0.000    |a| =      19.648
 CELL_REF| Vector b [angstrom     8.669    15.014     0.000    |b| =      17.337
 CELL_REF| Vector c [angstrom     0.000     0.000    20.000    |c| =      20.000
 CELL_REF| Angle (b,c), alpha [degree]:                                   90.000
 CELL_REF| Angle (a,c), beta  [degree]:                                   90.000
 CELL_REF| Angle (a,b), gamma [degree]:                                   60.000
 CELL_REF| Requested initial symmetry:                                 TRICLINIC
 CELL_REF| Numerically orthorhombic:                                          NO

 *******************************************************************************
 *******************************************************************************
 **                                                                           **
 **     #####                         ##              ##                      **
 **    ##   ##            ##          ##              ##                      **
 **   ##     ##                       ##            ######                    **
 **   ##     ##  ##   ##  ##   #####  ##  ##   ####   ##    #####    #####    **
 **   ##     ##  ##   ##  ##  ##      ## ##   ##      ##   ##   ##  ##   ##   **
 **   ##  ## ##  ##   ##  ##  ##      ####     ###    ##   ######   ######    **
 **    ##  ###   ##   ##  ##  ##      ## ##      ##   ##   ##       ##        **
 **     #######   #####   ##   #####  ##  ##  ####    ##    #####   ##        **
 **           ##                                                    ##        **
 **                                                                           **
 **                                                ... make the atoms dance   **
 **                                                                           **
 **            Copyright (C) by CP2K developers group (2000 - 2018)           **
 **                                                                           **
 *******************************************************************************

 DFT| Spin unrestricted (spin-polarized) Kohn-Sham calculation               UKS
 DFT| Multiplicity                                                             1
 DFT| Number of spin states                                                    2
 DFT| Charge                                                                   0
 DFT| Self-interaction correction (SIC)                                       NO
 DFT| Cutoffs: density                                              1.000000E-10
 DFT|          gradient                                             1.000000E-10
 DFT|          tau                                                  1.000000E-10
 DFT|          cutoff_smoothing_range                               0.000000E+00
 DFT| XC density smoothing                                                  NONE
 DFT| XC derivatives                                              SPLINE2_SMOOTH
 FUNCTIONAL| ROUTINE=NEW
 FUNCTIONAL| BECKE88:
 FUNCTIONAL| A. Becke, Phys. Rev. A 38, 3098 (1988) {LSD version}               
 FUNCTIONAL| LYP:
 FUNCTIONAL| C. Lee, W. Yang, R.G. Parr, Phys. Rev. B, 37, 785 (1988) {LSD versi
 FUNCTIONAL| on}                                                                
 vdW POTENTIAL|                                                   Pair Potential
 vdW POTENTIAL|          DFT-D3 (Version 3.1)
 vdW POTENTIAL|          Potential Form: S. Grimme et al, JCP 132: 154104 (2010)
 vdW POTENTIAL|          Zero Damping
 vdW POTENTIAL|          Cutoff Radius [Bohr]:                             20.00
 vdW POTENTIAL|          s6 Scaling Factor:                               1.0000
 vdW POTENTIAL|          sr6 Scaling Factor:                              1.0940
 vdW POTENTIAL|          s8 Scaling Factor:                               1.6820
 vdW POTENTIAL|          Cutoff for CN calculation:                   0.1000E-05

 QS| Method:                                                                 GPW
 QS| Density plane wave grid type                        NON-SPHERICAL FULLSPACE
 QS| Number of grid levels:                                                    4
 QS| Density cutoff [a.u.]:                                                150.0
 QS| Multi grid cutoff [a.u.]: 1) grid level                               150.0
 QS|                           2) grid level                                50.0
 QS|                           3) grid level                                16.7
 QS|                           4) grid level                                 5.6
 QS| Grid level progression factor:                                          3.0
 QS| Relative density cutoff [a.u.]:                                        20.0
 QS| Consistent realspace mapping and integration 
 QS| Interaction thresholds: eps_pgf_orb:                                1.0E-06
 QS|                         eps_filter_matrix:                          0.0E+00
 QS|                         eps_core_charge:                            1.0E-14
 QS|                         eps_rho_gspace:                             1.0E-12
 QS|                         eps_rho_rspace:                             1.0E-12
 QS|                         eps_gvg_rspace:                             1.0E-06
 QS|                         eps_ppl:                                    1.0E-02
 QS|                         eps_ppnl:                                   1.0E-08


 ATOMIC KIND INFORMATION

  1. Atomic kind: C                                     Number of atoms:     112

     Orbital Basis Set                                        DZVP-MOLOPT-SR-GTH

       Number of orbital shell sets:                                           1
       Number of orbital shells:                                               5
       Number of primitive Cartesian functions:                                5
       Number of Cartesian basis functions:                                   14
       Number of spherical basis functions:                                   13
       Norm type:                                                              2

       Normalised Cartesian orbitals:

                        Set   Shell   Orbital            Exponent    Coefficient

                          1       1    2s                5.605331       0.322515
                                                         2.113016       0.213043
                                                         0.769911      -0.209686
                                                         0.348157      -0.219794
                                                         0.128212      -0.022789

                          1       2    3s                5.605331       0.552234
                                                         2.113016       0.082072
                                                         0.769911       0.007843
                                                         0.348157       0.136893
                                                         0.128212       0.074283

                          1       3    3px               5.605331      -0.703879
                                                         2.113016      -0.642521
                                                         0.769911      -0.374851
                                                         0.348157      -0.139743
                                                         0.128212      -0.027849
                          1       3    3py               5.605331      -0.703879
                                                         2.113016      -0.642521
                                                         0.769911      -0.374851
                                                         0.348157      -0.139743
                                                         0.128212      -0.027849
                          1       3    3pz               5.605331      -0.703879
                                                         2.113016      -0.642521
                                                         0.769911      -0.374851
                                                         0.348157      -0.139743
                                                         0.128212      -0.027849

                          1       4    4px               5.605331      -0.480376
                                                         2.113016      -0.552894
                                                         0.769911      -0.316145
                                                         0.348157       0.210505
                                                         0.128212       0.076095
                          1       4    4py               5.605331      -0.480376
                                                         2.113016      -0.552894
                                                         0.769911      -0.316145
                                                         0.348157       0.210505
                                                         0.128212       0.076095
                          1       4    4pz               5.605331      -0.480376
                                                         2.113016      -0.552894
                                                         0.769911      -0.316145
                                                         0.348157       0.210505
                                                         0.128212       0.076095

                          1       5    4dx2              5.605331       0.640026
                                                         2.113016       0.274300
                                                         0.769911       0.446711
                                                         0.348157       0.028674
                                                         0.128212       0.029790
                          1       5    4dxy              5.605331       1.108557
                                                         2.113016       0.475102
                                                         0.769911       0.773726
                                                         0.348157       0.049666
                                                         0.128212       0.051599
                          1       5    4dxz              5.605331       1.108557
                                                         2.113016       0.475102
                                                         0.769911       0.773726
                                                         0.348157       0.049666
                                                         0.128212       0.051599
                          1       5    4dy2              5.605331       0.640026
                                                         2.113016       0.274300
                                                         0.769911       0.446711
                                                         0.348157       0.028674
                                                         0.128212       0.029790
                          1       5    4dyz              5.605331       1.108557
                                                         2.113016       0.475102
                                                         0.769911       0.773726
                                                         0.348157       0.049666
                                                         0.128212       0.051599
                          1       5    4dz2              5.605331       0.640026
                                                         2.113016       0.274300
                                                         0.769911       0.446711
                                                         0.348157       0.028674
                                                         0.128212       0.029790

     GTH Potential information for                                    GTH-PBE-q4

       Description:                       Goedecker-Teter-Hutter pseudopotential
                                           Goedecker et al., PRB 54, 1703 (1996)
                                          Hartwigsen et al., PRB 58, 3641 (1998)
                                                      Krack, TCA 114, 145 (2005)

       Gaussian exponent of the core charge distribution:               4.364419
       Electronic configuration (s p d ...):                               2   2

       Parameters of the local part of the GTH pseudopotential:

                          rloc        C1          C2          C3          C4
                        0.338471   -8.803674    1.339211

       Parameters of the non-local part of the GTH pseudopotential:

                   l      r(l)      h(i,j,l)

                   0    0.302576    9.622487
                   1    0.291507


 MOLECULE KIND INFORMATION


 All atoms are their own molecule, skipping detailed information


 TOTAL NUMBERS AND MAXIMUM NUMBERS

  Total number of            - Atomic kinds:                                   1
                             - Atoms:                                        112
                             - Shell sets:                                   112
                             - Shells:                                       560
                             - Primitive Cartesian functions:                560
                             - Cartesian basis functions:                   1568
                             - Spherical basis functions:                   1456

  Maximum angular momentum of- Orbital basis functions:                        2
                             - Local part of the GTH pseudopotential:          2
                             - Non-local part of the GTH pseudopotential:      0


 MODULE QUICKSTEP:  ATOMIC COORDINATES IN angstrom

  Atom  Kind  Element       X           Y           Z          Z(eff)       Mass

       1     1 C    6    8.621666   14.934136    0.050429      4.00      12.0107
       2     1 C    6    9.850696   15.653800    0.048394      4.00      12.0107
       3     1 C    6   11.077890   14.935535    0.048493      4.00      12.0107
       4     1 C    6   12.307672   15.654283    0.025262      4.00      12.0107
       5     1 C    6   13.535108   14.935994    0.000613      4.00      12.0107
       6     1 C    6   14.764527   15.654132   -0.029478      4.00      12.0107
       7     1 C    6   15.991542   14.935562   -0.048778      4.00      12.0107
       8     1 C    6   17.220922   15.653954   -0.062455      4.00      12.0107
       9     1 C    6   18.447700   14.935857   -0.093710      4.00      12.0107
      10     1 C    6   19.677305   15.653356   -0.109344      4.00      12.0107
      11     1 C    6   20.903663   14.933609   -0.130778      4.00      12.0107
      12     1 C    6   22.132815   15.653254   -0.113220      4.00      12.0107
      13     1 C    6   23.359533   14.935211   -0.092320      4.00      12.0107
      14     1 C    6   24.588311   15.653298   -0.045861      4.00      12.0107
      15     1 C    6   25.814953   14.935231   -0.000578      4.00      12.0107
      16     1 C    6   27.043378   15.653502    0.028613      4.00      12.0107
      17     1 C    6   25.802112   13.508010   -0.003326      4.00      12.0107
      18     1 C    6   23.348289   13.508012   -0.098258      4.00      12.0107
      19     1 C    6   20.893791   13.507774   -0.143591      4.00      12.0107
      20     1 C    6   18.437946   13.509945   -0.116731      4.00      12.0107
      21     1 C    6   15.982382   13.510576   -0.057182      4.00      12.0107
      22     1 C    6   14.752504   12.792971   -0.031733      4.00      12.0107
      23     1 C    6   13.524371   13.510699    0.004413      4.00      12.0107
      24     1 C    6   12.294179   12.792883    0.034143      4.00      12.0107
      25     1 C    6   11.066414   13.510420    0.054116      4.00      12.0107
      26     1 C    6    9.837154   12.790130    0.060132      4.00      12.0107
      27     1 C    6    8.609916   13.508694    0.054834      4.00      12.0107
      28     1 C    6    7.380676   12.788689    0.033140      4.00      12.0107
      29     1 C    6   24.573794   12.787167   -0.052307      4.00      12.0107
      30     1 C    6   22.120373   12.787468   -0.132588      4.00      12.0107
      31     1 C    6   19.664264   12.789284   -0.142189      4.00      12.0107
      32     1 C    6   17.208903   12.791016   -0.094834      4.00      12.0107
      33     1 C    6   24.562999   11.360289   -0.054272      4.00      12.0107
      34     1 C    6   23.333863   10.637139   -0.092356      4.00      12.0107
      35     1 C    6   22.110267   11.360948   -0.129058      4.00      12.0107
      36     1 C    6   20.881548   10.642496   -0.140132      4.00      12.0107
      37     1 C    6   19.655694   11.363292   -0.143952      4.00      12.0107
      38     1 C    6   18.427367   10.644127   -0.126155      4.00      12.0107
      39     1 C    6   17.201924   11.365607   -0.101001      4.00      12.0107
      40     1 C    6   15.973066   10.646327   -0.069511      4.00      12.0107
      41     1 C    6   14.745947   11.367809   -0.041882      4.00      12.0107
      42     1 C    6   13.513476   10.650441   -0.022942      4.00      12.0107
      43     1 C    6   12.283182   11.367753    0.022146      4.00      12.0107
      44     1 C    6   11.053487   10.645495    0.036468      4.00      12.0107
      45     1 C    6    9.826073   11.364382    0.053798      4.00      12.0107
      46     1 C    6    8.597258   10.643461    0.040628      4.00      12.0107
      47     1 C    6    7.370535   11.362959    0.025515      4.00      12.0107
      48     1 C    6    6.142342   10.642278   -0.018566      4.00      12.0107
      49     1 C    6    6.132451    9.216798   -0.029511      4.00      12.0107
      50     1 C    6    7.358770    8.497429   -0.013891      4.00      12.0107
      51     1 C    6    8.586544    9.217661    0.018784      4.00      12.0107
      52     1 C    6    9.812863    8.497442    0.009852      4.00      12.0107
      53     1 C    6   11.040825    9.218699    0.013101      4.00      12.0107
      54     1 C    6   12.268592    8.496248   -0.023156      4.00      12.0107
      55     1 C    6   13.503029    9.219208   -0.041340      4.00      12.0107
      56     1 C    6   14.735632    8.496516   -0.051726      4.00      12.0107
      57     1 C    6   15.964913    9.219543   -0.063903      4.00      12.0107
      58     1 C    6   17.190273    8.497736   -0.075592      4.00      12.0107
      59     1 C    6   18.417760    9.218239   -0.110217      4.00      12.0107
      60     1 C    6   19.643466    8.497415   -0.109871      4.00      12.0107
      61     1 C    6   20.871629    9.216682   -0.121614      4.00      12.0107
      62     1 C    6   22.096875    8.495473   -0.092675      4.00      12.0107
      63     1 C    6   23.325147    9.213879   -0.078838      4.00      12.0107
      64     1 C    6   22.089085    7.071236   -0.067773      4.00      12.0107
      65     1 C    6   20.860948    6.352370   -0.061567      4.00      12.0107
      66     1 C    6   19.634688    7.072463   -0.076010      4.00      12.0107
      67     1 C    6   18.406617    6.352667   -0.058385      4.00      12.0107
      68     1 C    6   17.179990    7.072063   -0.059298      4.00      12.0107
      69     1 C    6   15.951855    6.351056   -0.048185      4.00      12.0107
      70     1 C    6   14.723875    7.068778   -0.048352      4.00      12.0107
      71     1 C    6   13.492744    6.350362   -0.045405      4.00      12.0107
      72     1 C    6   12.263419    7.068607   -0.036230      4.00      12.0107
      73     1 C    6   11.033590    6.351242   -0.034051      4.00      12.0107
      74     1 C    6    9.807006    7.072088   -0.021079      4.00      12.0107
      75     1 C    6    8.578603    6.352763   -0.033177      4.00      12.0107
      76     1 C    6    7.351729    7.072291   -0.032307      4.00      12.0107
      77     1 C    6    6.123492    6.352746   -0.043849      4.00      12.0107
      78     1 C    6    4.896627    7.071691   -0.049791      4.00      12.0107
      79     1 C    6    4.904653    8.496525   -0.052452      4.00      12.0107
      80     1 C    6    3.668130    6.352404   -0.052664      4.00      12.0107
      81     1 C    6    3.658782    4.927485   -0.040546      4.00      12.0107
      82     1 C    6    4.885800    4.208628   -0.038731      4.00      12.0107
      83     1 C    6    6.114764    4.927590   -0.044847      4.00      12.0107
      84     1 C    6    7.341642    4.208590   -0.045387      4.00      12.0107
      85     1 C    6    8.570607    4.927294   -0.043452      4.00      12.0107
[...]
     71       C      1       4.000    1.990   1.990            0.000      0.020
     72       C      1       4.000    1.982   1.982            0.000      0.035
     73       C      1       4.000    1.999   1.999            0.000      0.001
     74       C      1       4.000    2.000   2.000            0.000     -0.000
     75       C      1       4.000    2.002   2.002            0.000     -0.004
     76       C      1       4.000    2.001   2.001            0.000     -0.002
     77       C      1       4.000    2.001   2.001            0.000     -0.002
     78       C      1       4.000    2.001   2.001            0.000     -0.002
     79       C      1       4.000    2.001   2.001            0.000     -0.002
     80       C      1       4.000    2.001   2.001            0.000     -0.002
     81       C      1       4.000    2.001   2.001            0.000     -0.002
     82       C      1       4.000    2.001   2.001            0.000     -0.003
     83       C      1       4.000    2.001   2.001            0.000     -0.001
     84       C      1       4.000    2.001   2.001            0.000     -0.003
     85       C      1       4.000    2.001   2.001            0.000     -0.002
     86       C      1       4.000    2.001   2.001            0.000     -0.003
     87       C      1       4.000    2.001   2.001            0.000     -0.003
     88       C      1       4.000    2.001   2.001            0.000     -0.003
     89       C      1       4.000    2.001   2.001            0.000     -0.002
     90       C      1       4.000    2.002   2.002            0.000     -0.003
     91       C      1       4.000    2.001   2.001           -0.000     -0.003
     92       C      1       4.000    2.002   2.002            0.000     -0.003
     93       C      1       4.000    2.001   2.001            0.000     -0.002
     94       C      1       4.000    2.001   2.001            0.000     -0.003
     95       C      1       4.000    2.001   2.001           -0.000     -0.002
     96       C      1       4.000    2.001   2.001            0.000     -0.002
     97       C      1       4.000    2.001   2.001            0.000     -0.003
     98       C      1       4.000    2.001   2.001            0.000     -0.003
     99       C      1       4.000    2.001   2.001            0.000     -0.002
    100       C      1       4.000    2.002   2.002            0.000     -0.003
    101       C      1       4.000    2.001   2.001            0.000     -0.002
    102       C      1       4.000    2.001   2.001            0.000     -0.003
    103       C      1       4.000    2.001   2.001            0.000     -0.002
    104       C      1       4.000    2.001   2.001            0.000     -0.002
    105       C      1       4.000    2.001   2.001            0.000     -0.002
    106       C      1       4.000    2.001   2.001            0.000     -0.002
    107       C      1       4.000    2.001   2.001            0.000     -0.002
    108       C      1       4.000    2.001   2.001            0.000     -0.002
    109       C      1       4.000    2.001   2.001            0.000     -0.002
    110       C      1       4.000    2.001   2.001            0.000     -0.002
    111       C      1       4.000    2.001   2.001            0.000     -0.002
    112       C      1       4.000    2.001   2.001            0.000     -0.002
    113       Na     2       9.000    4.735   4.735            0.000     -0.471

  Total Charge                                                            0.015
 !-----------------------------------------------------------------------------!

 *** WARNING in qs_loc_utils.F:1387 :: User requested the calculation of ***
 *** the localized wavefunction but the section LOCALIZE was not         ***
 *** specified. Localization will not be performed!                      ***


 -------------------------------------------------------------------------------
 ----                             MULTIGRID INFO                            ----
 -------------------------------------------------------------------------------
 count for grid        1:         163784          cutoff [a.u.]          150.00
 count for grid        2:          77683          cutoff [a.u.]           50.00
 count for grid        3:          42658          cutoff [a.u.]           16.67
 count for grid        4:          17124          cutoff [a.u.]            5.56
 total gridlevel count  :         301249

 -------------------------------------------------------------------------------
 -                                                                             -
 -                                 BSSE RESULTS                                -
 -                                                                             -
 -                 CP-corrected Total energy:     -681.675510                  -
 -                                                                             -
 -                       1-body contribution:     -634.503446                  -
 -                       1-body contribution:      -47.159148                  -
 -                                                                             -
 -                       2-body contribution:       -0.012916                  -
 -                 BSSE-free interaction energy:       -0.012916               -
 -------------------------------------------------------------------------------

 -------------------------------------------------------------------------------
 -                                                                             -
 -                                DBCSR STATISTICS                             -
 -                                                                             -
 -------------------------------------------------------------------------------
 COUNTER                                    TOTAL       BLAS       SMM       ACC
 flops     9 x     9 x     8               128304       0.0%    100.0%      0.0%
 flops     9 x     9 x     9               310554       0.0%    100.0%      0.0%
 flops     9 x     9 x    68              2004912       0.0%    100.0%      0.0%
 flops     9 x     9 x    72              2216160       0.0%    100.0%      0.0%
 flops     9 x     9 x    73              2246940       0.0%    100.0%      0.0%
 flops     9 x     9 x    32              3079296       0.0%    100.0%      0.0%
 flops     9 x     9 x    64              5826816       0.0%    100.0%      0.0%
 flops    13 x     9 x     8             10378368       0.0%    100.0%      0.0%
 flops     9 x    13 x     8             10378368       0.0%    100.0%      0.0%
 flops    13 x     9 x     9             11675664       0.0%    100.0%      0.0%
 flops     9 x    13 x     9             11675664       0.0%    100.0%      0.0%
 flops     9 x     9 x    96             17480448       0.0%    100.0%      0.0%
 flops    13 x     9 x    68            162175104       0.0%    100.0%      0.0%
 flops     9 x    13 x    68            162175104       0.0%    100.0%      0.0%
 flops    13 x     9 x    72            179262720       0.0%    100.0%      0.0%
 flops     9 x    13 x    72            179262720       0.0%    100.0%      0.0%
 flops    13 x     9 x    73            181752480       0.0%    100.0%      0.0%
 flops     9 x    13 x    73            181752480       0.0%    100.0%      0.0%
 flops    13 x     9 x    32            249080832       0.0%    100.0%      0.0%
 flops     9 x    13 x    32            249080832       0.0%    100.0%      0.0%
 flops    13 x     9 x    64            471324672       0.0%    100.0%      0.0%
 flops     9 x    13 x    64            471324672       0.0%    100.0%      0.0%
 flops    13 x     9 x    96           1413974016       0.0%    100.0%      0.0%
 flops     9 x    13 x    96           1413974016       0.0%    100.0%      0.0%
 flops    13 x    13 x     8           1693980288       0.0%    100.0%      0.0%
 flops    13 x    13 x     9           1905727824       0.0%    100.0%      0.0%
 flops    13 x    13 x    72          29259659520       0.0%    100.0%      0.0%
 flops    13 x    13 x    73          29666043680       0.0%    100.0%      0.0%
 flops    13 x    13 x    32          40655526912       0.0%    100.0%      0.0%
 flops    13 x    13 x    68          47705222656       0.0%    100.0%      0.0%
 flops    13 x    13 x    64          96916205568       0.0%    100.0%      0.0%
 flops    13 x    13 x    96         290748616704       0.0%    100.0%      0.0%
 flops inhomo. stacks                           0       0.0%      0.0%      0.0%
 flops total                       543.943524E+09       0.0%    100.0%      0.0%
 flops max/rank                     35.925989E+09       0.0%    100.0%      0.0%
 matmuls inhomo. stacks                         0       0.0%      0.0%      0.0%
 matmuls total                           23276306       0.0%    100.0%      0.0%
 number of processed stacks                 82418       0.0%    100.0%      0.0%
 average stack size                                     0.0     282.4       0.0
 marketing flops                   694.773154E+09
 -------------------------------------------------------------------------------
 # multiplications                           1020
 max memory usage/rank             884.629504E+06
 # max total images/rank                        1
 # max 3D layers                                1
 # MPI messages exchanged                   97920
 MPI messages size (bytes):
  total size                        17.686090E+09
  min size                           0.000000E+00
  max size                         286.464000E+03
  average size                     180.617750E+03
 MPI breakdown and total messages size (bytes):
             size <=      128               10260                        0
       128 < size <=     8192                 684                   443232
      8192 < size <=    32768                4752                118348560
     32768 < size <=   131072               14256               1336642560
    131072 < size <=  4194304               67968              16230657312
   4194304 < size <= 16777216                   0                        0
  16777216 < size                               0                        0
 -------------------------------------------------------------------------------

 MEMORY| Estimated peak process memory [MiB]                                 844

 -------------------------------------------------------------------------------
 ----                             MULTIGRID INFO                            ----
 -------------------------------------------------------------------------------
 count for grid        1:         148480          cutoff [a.u.]          150.00
 count for grid        2:          51840          cutoff [a.u.]           50.00
 count for grid        3:          26560          cutoff [a.u.]           16.67
 count for grid        4:           7360          cutoff [a.u.]            5.56
 total gridlevel count  :         234240

 -------------------------------------------------------------------------------
 -                                                                             -
 -                         MESSAGE PASSING PERFORMANCE                         -
 -                                                                             -
 -------------------------------------------------------------------------------

 ROUTINE             CALLS      AVE VOLUME [Bytes]
 MP_Group             1054
 MP_Bcast              805                1193808.
 MP_Allreduce        16553                    314.
 MP_Sync               138
 MP_Alltoall         41488                4735254.
 MP_SendRecv         12240                 331776.
 MP_ISendRecv        92250                 362400.
 MP_Wait            163980
 MP_comm_split         114
 MP_ISend            32880                1516356.
 MP_IRecv            32880                1511565.
 MP_Recv               422                 359362.
 MP_Memory           78024
 -------------------------------------------------------------------------------


 -------------------------------------------------------------------------------
 -                                                                             -
 -                           R E F E R E N C E S                               -
 -                                                                             -
 -------------------------------------------------------------------------------
 
 CP2K version 7.0 (Development Version), the CP2K developers group (2018).
 CP2K is freely available from https://www.cp2k.org/ .

 Schuett, Ole; Messmer, Peter; Hutter, Juerg; VandeVondele, Joost. 
 Electronic Structure Calculations on Graphics Processing Units, John Wiley & Sons, Ltd, 173-190 (2016). 
 GPU-Accelerated Sparse Matrix-Matrix Multiplication for Linear Scaling Density Functional Theory.
 http://dx.doi.org/10.1002/9781118670712.ch8


 Borstnik, U; VandeVondele, J; Weber, V; Hutter, J. 
 PARALLEL COMPUTING, 40 (5-6), 47-58 (2014). 
 Sparse matrix multiplication: The distributed block-compressed sparse
 row library.
 http://dx.doi.org/10.1016/j.parco.2014.03.012


 Hutter, J; Iannuzzi, M; Schiffmann, F; VandeVondele, J. 
 WILEY INTERDISCIPLINARY REVIEWS-COMPUTATIONAL MOLECULAR SCIENCE, 4 (1), 15-25 (2014). 
 CP2K: atomistic simulations of condensed matter systems.
 http://dx.doi.org/10.1002/wcms.1159


 Grimme, S; Ehrlich, S; Goerigk, L. 
 JOURNAL OF COMPUTATIONAL CHEMISTRY, 32, 1456 (2011). 
 Effect of the damping function in dispersion corrected density functional theory.
 http://dx.doi.org/10.1002/jcc.21759


 Grimme, S; Antony, J; Ehrlich, S; Krieg, H. 
 JOURNAL OF CHEMICAL PHYSICS, 132 (15), 154104 (2010). 
 A consistent and accurate ab initio parametrization of density
 functional dispersion correction (DFT-D) for the 94 elements H-Pu.
 http://dx.doi.org/10.1063/1.3382344


 VandeVondele, J; Hutter, J. 
 JOURNAL OF CHEMICAL PHYSICS, 127 (11), 114105 (2007). 
 Gaussian basis sets for accurate calculations on molecular systems in
 gas and condensed phases.
 http://dx.doi.org/10.1063/1.2770708


 Krack, M. 
 THEORETICAL CHEMISTRY ACCOUNTS, 114 (1-3), 145-152 (2005). 
 Pseudopotentials for H to Kr optimized for gradient-corrected
 exchange-correlation functionals.
 http://dx.doi.org/10.1007/s00214-005-0655-y


 VandeVondele, J; Krack, M; Mohamed, F; Parrinello, M; Chassaing, T;
 Hutter, J. COMPUTER PHYSICS COMMUNICATIONS, 167 (2), 103-128 (2005). 
 QUICKSTEP: Fast and accurate density functional calculations using a
 mixed Gaussian and plane waves approach.
 http://dx.doi.org/10.1016/j.cpc.2004.12.014


 Frigo, M; Johnson, SG. 
 PROCEEDINGS OF THE IEEE, 93 (2), 216-231 (2005). 
 The design and implementation of FFTW3.
 http://dx.doi.org/10.1109/JPROC.2004.840301


 Hartwigsen, C; Goedecker, S; Hutter, J. 
 PHYSICAL REVIEW B, 58 (7), 3641-3662 (1998). 
 Relativistic separable dual-space Gaussian pseudopotentials from H to Rn.
 http://dx.doi.org/10.1103/PhysRevB.58.3641


 Lippert, G; Hutter, J; Parrinello, M. 
 MOLECULAR PHYSICS, 92 (3), 477-487 (1997). 
 A hybrid Gaussian and plane wave density functional scheme.
 http://dx.doi.org/10.1080/002689797170220


 Goedecker, S; Teter, M; Hutter, J. 
 PHYSICAL REVIEW B, 54 (3), 1703-1710 (1996). 
 Separable dual-space Gaussian pseudopotentials.
 http://dx.doi.org/10.1103/PhysRevB.54.1703


 BECKE, AD. PHYSICAL REVIEW A, 38 (6), 3098-3100 (1988). 
 DENSITY-FUNCTIONAL EXCHANGE-ENERGY APPROXIMATION WITH CORRECT
 ASYMPTOTIC-BEHAVIOR.
 http://dx.doi.org/10.1103/PhysRevA.38.3098


 LEE, CT; YANG, WT; PARR, RG. 
 PHYSICAL REVIEW B, 37 (2), 785-789 (1988). 
 DEVELOPMENT OF THE COLLE-SALVETTI CORRELATION-ENERGY FORMULA INTO A
 FUNCTIONAL OF THE ELECTRON-DENSITY.
 http://dx.doi.org/10.1103/PhysRevB.37.785


 -------------------------------------------------------------------------------
 -                                                                             -
 -                                T I M I N G                                  -
 -                                                                             -
 -------------------------------------------------------------------------------
 SUBROUTINE                       CALLS  ASD         SELF TIME        TOTAL TIME
                                MAXIMUM       AVERAGE  MAXIMUM  AVERAGE  MAXIMUM
 CP2K                                 1  1.0    0.021    0.064 2232.217 2232.230
 qs_energies                          5  2.0    0.000    0.000 2230.352 2230.372
 scf_env_do_scf                       5  3.0    0.001    0.004 2222.741 2223.189
 scf_env_do_scf_inner_loop          510  4.0    0.028    0.108 2222.740 2223.184
 qs_ks_update_qs_env                510  5.0    0.004    0.005  941.680  941.731
 rebuild_ks_matrix                  510  6.0    0.002    0.002  941.182  941.224
 qs_ks_build_kohn_sham_matrix       510  7.0    0.069    0.073  941.180  941.222
 qs_rho_update_rho                  515  5.0    0.004    0.005  754.459  754.581
 calculate_rho_elec                1030  6.0  462.045  475.102  754.455  754.577
 sum_up_and_integrate               510  8.0    2.187    2.290  683.949  683.984
 integrate_v_rspace                1020  9.0  471.747  477.264  681.760  681.878
 pw_transfer                      11773  9.0    0.762    0.824  385.897  394.277
 fft_wrap_pw1pw2                  10753  9.9    0.091    0.097  380.619  388.928
 fft_wrap_pw1pw2_150               4603 10.2   27.213   28.032  354.279  362.660
 gspace_mixing                      504  5.0    2.123    2.227  307.368  307.370
 fft3d_ps                         10753 11.9  151.994  162.583  284.787  293.840
 density_rs2pw                     1030  7.0    0.056    0.065  272.025  279.864
 qs_scf_new_mos                     510  5.0    0.009    0.010  221.525  221.601
 eigensolver                       1020  6.0    0.062    0.076  209.243  209.303
 broyden_mixing                     504  6.0  199.577  201.454  206.133  206.474
 rs_pw_transfer                    8220  9.5    0.110    0.149  201.116  206.234
 potential_pw2rs                   1020 10.0    0.168    0.184  201.413  201.550
 qs_vxc_create                      510  8.0    0.011    0.013  195.414  197.372
 xc_vxc_pw_create                   510  9.0   15.494   16.879  195.403  197.360
 cp_fm_syevd                       1020  7.0    0.006    0.007  172.464  172.512
 cp_fm_syevd_base                  1020  8.0  172.383  172.435  172.383  172.435
 xc_rho_set_and_dset_create         510 10.0   18.490   19.533  132.628  136.049
 x_to_yz                           5608 13.3   53.748   56.402   77.170   80.311
 rs_pw_transfer_PW2RS_150          1030 12.0   46.206   47.521   75.524   79.915
 pw_nn_compose_r                   6120 10.5   56.218   57.898   70.661   79.002
 xc_functional_eval                1020 11.0    0.008    0.009   70.458   74.355
 rs_pw_transfer_RS2PW_150          1040  9.0   39.483   41.495   64.339   71.058
 yz_to_x                           5145 12.6   32.321   34.097   55.450   59.679
 mp_waitany                       16560 11.5   44.190   53.724   44.190   53.724
 mp_alltoall_z22v                 10753 13.9   46.551   53.227   46.551   53.227
 lyp_lsd_eval                       510 12.0   49.859   52.461   49.859   52.461
 -------------------------------------------------------------------------------

 The number of warnings for this run is : 7
 
 -------------------------------------------------------------------------------
  **** **** ******  **  PROGRAM ENDED AT                 2024-08-07 12:07:01.138
 ***** ** ***  *** **   PROGRAM RAN ON                                sebnode047
 **    ****   ******    PROGRAM RAN BY                                    luehrs
 ***** **    ** ** **   PROGRAM PROCESS ID                                307457
  **** **  *******  **  PROGRAM STOPPED IN /home/luehrs/PhD/Sodium_batteries/Sod
                                           ium-graphene-surface/Zig-Zag_3
