     113
 i =       28, E =      -685.0865844241
  C         8.6230722480       14.9331042229       -0.0071764022
  C         9.8515928225       15.6527593799        0.0010226325
  C        11.0788351650       14.9343355615        0.0087830453
  C        12.3079811826       15.6531567785        0.0086779257
  C        13.5354774668       14.9345719105        0.0031339037
  C        14.7649176552       15.6528583389       -0.0043285807
  C        15.9920753161       14.9341099864       -0.0262718005
  C        17.2211106999       15.6522750341       -0.0421863149
  C        18.4477259420       14.9329856504       -0.0726067859
  C        19.6767485194       15.6513248391       -0.0842344014
  C        20.9036901149       14.9320526606       -0.0972252003
  C        22.1327871794       15.6507904298       -0.0976435802
  C        23.3598975620       14.9316280342       -0.0889016911
  C        24.5887232653       15.6507506446       -0.0776687242
  C        25.8156204828       14.9319431274       -0.0488604719
  C        27.0440601749       15.6516096351       -0.0319637961
  C        25.8059885223       13.5068994221       -0.0340096084
  C        23.3508412573       13.5066029281       -0.0790266875
  C        20.8953030041       13.5068807321       -0.0984096999
  C        18.4397852276       13.5079584521       -0.0841068575
  C        15.9843542160       13.5092987840       -0.0402535981
  C        14.7547187582       12.7914643810       -0.0242047065
  C        13.5268358934       13.5097273357       -0.0026802108
  C        12.2966360485       12.7914408409        0.0048418851
  C        11.0690014626       13.5094590940        0.0100231798
  C         9.8402105763       12.7891279431        0.0093600286
  C         8.6132163248       13.5080175451        0.0005877298
  C         7.3846848295       12.7876665685       -0.0085853594
  C        24.5773872414       12.7871081112       -0.0503872732
  C        22.1220294673       12.7871086103       -0.0892414237
  C        19.6663123772       12.7877640594       -0.0971862328
  C        17.2107618511       12.7892511117       -0.0708696713
  C        24.5670170626       11.3618288319       -0.0343988440
  C        23.3386980147       10.6422689902       -0.0503528060
  C        22.1122359322       11.3617525846       -0.0783981061
  C        20.8837783765       10.6423186819       -0.0883837861
  C        19.6572261062       11.3621463863       -0.0969999283
  C        18.4287300682       10.6428425835       -0.0948913936
  C        17.2024994053       11.3635559498       -0.0817785581
  C        15.9736386100       10.6444827247       -0.0707079834
  C        14.7468295642       11.3660152696       -0.0399782903
  C        13.5148686330       10.6480823095       -0.0278771192
  C        12.2847594729       11.3659216721       -0.0027955602
  C        11.0556545066       10.6441998333        0.0039327223
  C         9.8285380121       11.3634595232        0.0105085601
  C         8.6003954235       10.6426412348        0.0090741863
  C         7.3737914089       11.3621480692        0.0000937532
  C         6.1454712805       10.6423302666       -0.0091762847
  C         6.1364291939        9.2173507620       -0.0006832513
  C         7.3627615097        8.4974840555        0.0084745397
  C         8.5909311800        9.2173773409        0.0104858092
  C         9.8169641967        8.4966909215        0.0074016065
  C        11.0448640209        9.2178889860       -0.0004321815
  C        12.2723149562        8.4949413829       -0.0235063065
  C        13.5059183807        9.2177623167       -0.0491757920
  C        14.7376661644        8.4952504822       -0.0713859746
  C        15.9667953165        9.2182041926       -0.0813636544
  C        17.1929110257        8.4970788098       -0.0925123540
  C        18.4208543961        9.2175967311       -0.0947218339
  C        19.6471185879        8.4975621803       -0.0861079608
  C        20.8753173240        9.2173242327       -0.0774971666
  C        22.1015551782        8.4977152078       -0.0494874113
  C        23.3298104805        9.2173680884       -0.0346825999
  C        22.0911369106        7.0724083867       -0.0332966938
  C        20.8626623167        6.3525774204       -0.0466914449
  C        19.6362610379        7.0720529141       -0.0747606806
  C        18.4078192727        6.3516726138       -0.0838608146
  C        17.1810969208        7.0710961784       -0.0930509965
  C        15.9526989941        6.3497197198       -0.0908322173
  C        14.7246453849        7.0676027551       -0.0784820855
  C        13.4937730344        6.3486448239       -0.0642101935
  C        12.2650404000        7.0671067732       -0.0325090265
  C        11.0349912361        6.3494580817       -0.0160577350
  C         9.8087402642        7.0707080239        0.0018319194
  C         8.5799243266        6.3515883625        0.0060855095
  C         7.3534262268        7.0719075760        0.0091601879
  C         6.1247859281        6.3525035030        0.0071390222
  C         4.8981827147        7.0722938578       -0.0014236762
  C         4.9081101518        8.4976882584       -0.0098161756
  C         3.6695700778        6.3527437832       -0.0090265480
  C         3.6606850405        4.9277727681       -0.0004195180
  C         4.8876392982        4.2084436023        0.0069644785
  C         6.1165753743        4.9273776990        0.0075588563
  C         7.3434342876        4.2078285891        0.0028046882
  C         8.5724222951        4.9263708019       -0.0011430098
  C         9.7989730798        4.2065236192       -0.0210475080
  C        11.0281287492        4.9245222044       -0.0322106451
  C        12.2552470176        4.2057884770       -0.0644437687
  C        13.4850450989        4.9236912547       -0.0763142130
  C        14.7128491495        4.2057209463       -0.0919257608
  C        15.9421217618        4.9247063079       -0.0926366551
  C        17.1693721856        4.2063995441       -0.0840134440
  C        18.3977745501        4.9264705984       -0.0732710188
  C        19.6246141660        4.2077812328       -0.0445208698
  C        20.8530617191        4.9275544062       -0.0302096907
  C        19.6142585085        2.7825752187       -0.0298548063
  C        18.3857173165        2.0624258123       -0.0460790569
  C        17.1589517492        2.7812203259       -0.0746821532
  C        15.9300287633        2.0615666401       -0.0865685300
  C        14.7029256489        2.7806030751       -0.0948679448
  C        13.4734303281        2.0615988166       -0.0949531097
  C        12.2463182192        2.7807265312       -0.0801410933
  C        11.0168958497        2.0621053199       -0.0701908246
  C         9.7903566137        2.7815030346       -0.0390056369
  C         8.5611490192        2.0629595739       -0.0263143799
  C         6.1052211416        2.0636820891        0.0018599222
  C         7.3345396379        2.7825533051       -0.0045777941
  C         4.8783078497        2.7832008958        0.0077478973
  C         3.6490003631        2.0639626177        0.0079592952
  C         2.4220230105        2.7833258078        0.0008545827
  C         2.4319577996        4.2085413133       -0.0070007782
  C         1.1931053843        2.0636154163       -0.0066042871
 Na        13.5132222291        9.1258053224        2.5461184295
