     130
 i =       90, E =      -684.1858817115
  C         8.5756400565       14.8996856729        0.1559665861
  C         9.7917283588       15.5890887143        0.3026332658
  C        11.0303814066       14.9278289386        0.3393394903
  C        12.2715714423       15.6160578023        0.5322626300
  C        13.5078820944       14.9183628832        0.3695299291
  C        14.7416537871       15.5836088482        0.2851131436
  C        15.9587282115       14.9004649567        0.1178763105
  C        17.1803879192       15.5901170635        0.0289018211
  C        18.4067895697       14.9100384243       -0.0785311093
  C        19.6338293509       15.5961017304       -0.1311625957
  C        20.8621677323       14.9128845770       -0.1744900536
  C        22.0915874671       15.5978874480       -0.1740944015
  C        23.3198656930       14.9133640063       -0.1572621576
  C        24.5483717943       15.5967182208       -0.0917834272
  C        25.7745278910       14.9105791639       -0.0310785102
  C        27.0003651182       15.5898579770        0.0875909747
  C        25.7736044297       13.4658607994       -0.0730370523
  C        23.3185264923       13.4671627578       -0.1742167329
  C        20.8618390322       13.4667211648       -0.1864520288
  C        18.4067980976       13.4649927564       -0.1049562684
  C        15.9554312947       13.4613244710        0.0531188936
  C        14.7219116753       12.7620029475        0.0905066724
  C        13.4973453504       13.4775528882        0.2081247666
  C        12.2667494813       12.7674546892        0.1698131560
  C        11.0387218224       13.4829772308        0.1985659912
  C         9.8118348684       12.7657982630        0.0972700142
  C         8.5779304616       13.4627644706        0.0757325725
  C         7.3513274294       12.7560523507       -0.0259902052
  C        24.5455960306       12.7575408156       -0.1445776470
  C        22.0898118230       12.7570980166       -0.1953327375
  C        19.6334041370       12.7563105831       -0.1657022996
  C        17.1793829399       12.7542772392       -0.0537653904
  C        24.5426799069       11.3244149361       -0.1612516559
  C        23.3142083309       10.6121288386       -0.1900824917
  C        22.0868963572       11.3231963032       -0.1992831998
  C        20.8577631005       10.6104175013       -0.1962745827
  C        19.6307871735       11.3221055132       -0.1762308778
  C        18.4021045586       10.6096495060       -0.1480252764
  C        17.1754295075       11.3222108401       -0.0915922665
  C        15.9451191598       10.6142313635       -0.0604769510
  C        14.7183717741       11.3294913090        0.0116116989
  C        13.4898637121       10.6188144814        0.0159328012
  C        12.2645009583       11.3346953176        0.0689301505
  C        11.0359691276       10.6204983841        0.0186971056
  C         9.8102117184       11.3327435006        0.0208555596
  C         8.5810285828       10.6180362779       -0.0454188951
  C         7.3503416072       11.3251681757       -0.0711973703
  C         6.1228613196       10.6134555284       -0.1298262219
  C         6.1218380293        9.1844227852       -0.1414219604
  C         7.3495365070        8.4754192528       -0.1138904222
  C         8.5788224215        9.1896490383       -0.0790572807
  C         9.8060344823        8.4773366859       -0.0694265492
  C        11.0337066385        9.1906392433       -0.0359449349
  C        12.2606021353        8.4753137821       -0.0504192232
  C        13.4889381915        9.1880600667       -0.0385940069
  C        14.7148552009        8.4723501071       -0.0744641261
  C        15.9441139947        9.1836706168       -0.0894560871
  C        17.1704417996        8.4690426534       -0.1245270092
  C        18.3999312129        9.1797737896       -0.1543091849
  C        19.6274330706        8.4668340735       -0.1757462801
  C        20.8556771401        9.1799008625       -0.1926596332
  C        22.0842224396        8.4677327187       -0.1920204610
  C        23.3125811930        9.1816139172       -0.1886915546
  C        22.0831331513        7.0371904418       -0.1772021319
  C        20.8531757008        6.3230369344       -0.1628212278
  C        19.6259974592        7.0357507076       -0.1619400663
  C        18.3960301922        6.3228930760       -0.1352347894
  C        17.1680407944        7.0377414266       -0.1217337126
  C        15.9391754518        6.3257392658       -0.1033492635
  C        14.7115011272        7.0413672178       -0.0904973566
  C        13.4834051132        6.3302337967       -0.0878570077
  C        12.2571072552        7.0450299436       -0.0787252570
  C        11.0280871209        6.3339836492       -0.0872294881
  C         9.8030362511        7.0471770813       -0.0879332160
  C         8.5740771093        6.3336043267       -0.1001700822
  C         7.3466847084        7.0456891125       -0.1154052077
  C         6.1189892558        6.3319005614       -0.1307939385
  C         4.8910210731        7.0409992878       -0.1580746221
  C         4.8926658853        8.4704830243       -0.1687238797
  C         3.6619970374        6.3267140274       -0.1617134764
  C         3.6615385009        4.8925278334       -0.1352266446
  C         4.8923983006        4.1856901119       -0.1158244089
  C         6.1198489882        4.8972591236       -0.1157928745
  C         7.3462560047        4.1895071887       -0.1011879763
  C         8.5711721712        4.9024395694       -0.0990098489
  C         9.7948195802        4.1898462952       -0.0951442861
  C        11.0218206948        4.8990414009       -0.0931060940
  C        12.2477805902        4.1874685788       -0.0932724115
  C        13.4790995571        4.8954306332       -0.0929649897
  C        14.7039297586        4.1825635379       -0.0943176110
  C        15.9361416120        4.8912810150       -0.0995907665
  C        17.1627482588        4.1800847240       -0.1019255569
  C        18.3935537732        4.8889876675       -0.1173723566
  C        19.6229456547        4.1788701193       -0.1161503392
  C        20.8514274121        4.8891417943       -0.1354193356
  C        19.6221553461        2.7318476017       -0.0956836560
  C        18.3919474916        2.0480257833       -0.0865538784
  C        17.1629664258        2.7332142907       -0.0918229451
  C        15.9313604260        2.0492027179       -0.0881837523
  C        14.7046390989        2.7357714750       -0.0916335997
  C        13.4699266495        2.0524052534       -0.0916889100
  C        12.2476945596        2.7424545539       -0.0932961351
  C        11.0075883655        2.0605308259       -0.0931824492
  C         9.7797605143        2.7391713366       -0.0937984477
  C         8.5693390649        1.9949989479       -0.0896149195
  C         6.1311739717        2.0601750758       -0.0867304961
  C         7.3598521953        2.7391195699       -0.0915394277
  C         4.8909564981        2.7411145688       -0.0958763079
  C         3.6680948631        2.0507470701       -0.0883195616
  C         2.4329802994        2.7331097676       -0.0986918075
  C         2.4348635531        4.1800575966       -0.1241816851
  C         1.2052535799        2.0474377247       -0.0875138958
  H        27.0050933219       16.6777185632        0.1352413895
  H        24.5491533285       16.6854104985       -0.0677185369
  H        22.0913672422       16.6867583030       -0.1600502874
  H        17.1786195334       16.6782768972        0.0667553197
  H        14.7735332520       16.6660011353        0.3467829325
  H        13.0337627700       18.3169980664        2.0607104161
  H         9.7719005328       16.6718126258        0.3629397655
  H         1.2059819589        0.9588382048       -0.0705163343
  H         3.6734436296        0.9619069726       -0.0722948552
  H         6.1574815459        0.9708068468       -0.0758074018
  H        19.6330710728       16.6848806095       -0.1150375349
  H        10.9816064707        0.9711806936       -0.0915955703
  H        13.4648065083        0.9634571651       -0.0905154137
  H        15.9294694286        0.9604745953       -0.0825853511
  H        18.3909711466        0.9593448518       -0.0748482162
  C        12.2440803242       17.0464373353        0.9172987770
  O        13.1799072435       17.3657414237        1.8851058938
  O        11.4681220987       17.9063264086        0.5083783797
