     104
 i =       49, E =      -525.9201264819
  C        -0.1024436523        0.0169612442        0.0004366851
  C         4.1773606630       -7.3870743389        0.0006660344
  C         7.0288034768       -7.3882370977        0.0005103847
  C        -0.0843308774       -9.8598292398        0.0055874651
  C         4.8567995637        1.2279987366        0.0039006034
  C         6.2779774778        1.3353379435        0.0184577505
  C         7.0261880539        0.0483336037        0.0066146151
  C         2.7538969344       -4.9202210510        0.0002984079
  C         2.0184087839      -11.0703713152       -0.0077950831
  C         6.2875724436      -11.0701330982        0.0672777451
  C         2.7590639427       -7.3881754856        0.0012299714
  C         6.3178737586       -8.6270658604        0.0091730489
  C         4.1810637589       -4.9162026639        0.0001195014
  C         2.0433785638       -3.6782177981        0.0000263203
  C         6.3159768116       -6.1490009786       -0.0008392992
  C         0.6143125017       -3.6854069964        0.0002473503
  C         4.9190840084      -11.0705001259        0.0669077797
  C         2.0464566338       -6.1494757438        0.0002845626
  C         4.8897653622       -6.1506475733       -0.0008733068
  C         4.8896738979       -8.6275417916        0.0093319997
  C         6.3157070358       -1.1880556693        0.0026067193
  C         4.8867894659       -1.2135229812        0.0013382360
  C         4.1710406871        0.0343950784       -0.0000552498
  C         2.7256840657        0.0182491969       -0.0015251258
  C         1.9952425534        1.2242644629       -0.0024197983
  C         0.6248994702        1.2271201468       -0.0014310231
  C         0.6497418524      -11.0717115846       -0.0075297027
  C        -0.0932162624       -4.9204418725       -0.0002052430
  C         7.0211881490       -9.8596654527        0.0244123922
  C         0.6171048434       -6.1541867337        0.0002330512
  C        -0.0936988521       -7.3879147584        0.0011010330
  C         7.0233119507       -2.4349800200        0.0009592171
  C         0.6188232000       -8.6290159992        0.0017491670
  C         2.0473648751       -8.6270223816        0.0020727021
  C         2.7512606833       -9.8588044456        0.0063659091
  C         4.1861854519       -9.8585613321        0.0231654954
  C        -0.1026250273       -2.4536155235        0.0004314043
  C         7.0230371643       -4.9160904859       -0.0005707840
  C         6.3122005105       -3.6758692469        0.0003554281
  C         4.8917074834       -3.6812920213        0.0005104565
  C         4.1809907531       -2.4373000156        0.0006363198
  C         2.7491505685       -2.4494897805        0.0000633262
  C         2.0310839964       -1.2134488003       -0.0004210417
  C         0.6045544867       -1.2160119257        0.0001544195
  C         8.4467759901        0.0284282489        0.0016265495
  C        12.7185077180       -7.3928259323       -0.0005670088
  C        15.5713055766       -7.3913089162        0.0001745214
  C         8.4560318772       -9.8612608050        0.0071279122
  C        13.4510788399        1.2269961883        0.0044390877
  C        14.8181020791        1.2260181961        0.0037993280
  C        15.5508628556        0.0142056338        0.0015317720
  C        11.2926863470       -4.9245184072       -0.0005546076
  C        10.5583910201      -11.0738669169       -0.0089612564
  C        14.8328910289      -11.0717610640        0.0561238896
  C        11.2989015444       -7.3929628224       -0.0004400378
  C        14.8606509565       -8.6301632510        0.0071274618
  C        12.7194072799       -4.9247397811       -0.0008114408
  C        10.5805369427       -3.6881579378       -0.0000222272
  C        14.8568558448       -6.1567040301       -0.0010370416
  C         9.1579096376       -3.6859346137        0.0003320513
  C        13.4629514997      -11.0739860059        0.0566599319
  C        10.5846872363       -6.1564554548       -0.0009199112
  C        13.4303576068       -6.1578720830       -0.0015899100
  C        13.4319409388       -8.6317710308        0.0066320804
  C        14.8500039211       -1.2180228576        0.0011996040
  C        13.4240472660       -1.2197792029        0.0009275301
  C        12.7184707116        0.0130384019        0.0011243231
  C        11.2901992722        0.0129135135       -0.0009659051
  C        10.5599498330        1.2269517259       -0.0068046999
  C         9.1968903608        1.2409453995       -0.0054231155
  C         9.1893720845      -11.0735006438       -0.0072483562
  C         8.4494723275       -4.9196152418       -0.0004790029
  C        15.5653666309       -9.8616042073        0.0195448477
  C         9.1588315014       -6.1544511435       -0.0005024122
  C         8.4471001543       -7.3900370296        0.0005728832
  C        15.5626394922       -2.4551133925        0.0006903878
  C         9.1598311756       -8.6302080173        0.0012746055
  C        10.5882817500       -8.6312320845        0.0005790233
  C        11.2924924256       -9.8634328127        0.0039438801
  C        12.7282540956       -9.8638461808        0.0187574536
  C         8.4444602277       -2.4449380055        0.0005367420
  C        15.5652402199       -4.9235153081       -0.0005285731
  C        14.8519815232       -3.6891661019        0.0002414614
  C        13.4273532990       -3.6907912335       -0.0000435270
  C        12.7131456841       -2.4552357955        0.0005445116
  C        11.2929699662       -2.4533464712        0.0001632213
  C        10.5811125835       -1.2163124274        0.0000480444
  C         9.1539115778       -1.2133794306        0.0001464593
  H         0.1093039991        2.1813405518       -0.0024420525
  H         2.5148661229        2.1765044627       -0.0043809547
  H         4.3508398362        2.1875775548        0.0063831002
  O         6.7920237767        2.4867491047        0.0434860501
  H         8.6378561739        2.1709904634       -0.0065593517
  H        11.0799724858        2.1793698325       -0.0145619753
  H        12.9327026154        2.1796995978        0.0086435638
  H        15.3367724094        2.1789645189        0.0063587698
  H         0.1326166678      -12.0253799368       -0.0228760375
  H         2.5364993448      -12.0234934271       -0.0246610037
  H         4.4011218637      -12.0229705607        0.1050491990
  H         6.8052335259      -12.0228383728        0.1066386535
  H         8.6715053389      -12.0267764070       -0.0221781003
  H        11.0755516493      -12.0276629383       -0.0259690851
  H        12.9469616864      -12.0277917261        0.0913528642
  H        15.3511849692      -12.0244690024        0.0898254944
