 DBCSR| CPU Multiplication driver                                           BLAS (U)
 DBCSR| Multrec recursion limit                                              512 (U)
 DBCSR| Multiplication stack size                                           1000 (D)
 DBCSR| Maximum elements for images                                    UNLIMITED (U)
 DBCSR| Multiplicative factor virtual images                                   1 (U)
 DBCSR| Use multiplication densification                                       T (D)
 DBCSR| Multiplication size stacks                                             3 (U)
 DBCSR| Use memory pool for CPU allocation                                     F (U)
 DBCSR| Number of 3D layers                                               SINGLE (U)
 DBCSR| Use MPI memory allocation                                              F (U)
 DBCSR| Use RMA algorithm                                                      F (U)
 DBCSR| Use Communication thread                                               T (U)
 DBCSR| Communication thread load                                             87 (D)
 DBCSR| MPI: My process id                                                     0
 DBCSR| MPI: Number of processes                                              16
 DBCSR| OMP: Current number of threads                                         1
 DBCSR| OMP: Max number of threads                                             1
 DBCSR| Split modifier for TAS multiplication algorithm                  1.0E+00 (U)


  **** **** ******  **  PROGRAM STARTED AT               2025-07-09 14:59:53.471
 ***** ** ***  *** **   PROGRAM STARTED ON                            sebnode130
 **    ****   ******    PROGRAM STARTED BY                                luehrs
 ***** **    ** ** **   PROGRAM PROCESS ID                               1115998
  **** **  *******  **  PROGRAM STARTED IN /home/luehrs/PhD/Sodium_batteries/Sod
                                           ium-graphene-curvature/Curved_surface
                                           _convex/Zig-Zag2

 CP2K| version string:                                       CP2K version 2023.1
 CP2K| source code revision number:                                  git:b888bd8
 CP2K| cp2kflags: omp libint fftw3 libxc elpa parallel scalapack spglib         
 CP2K| is freely available from                            https://www.cp2k.org/
 CP2K| Program compiled at                          Tue Jan 10 19:52:03 UTC 2023
 CP2K| Program compiled on                                            x86-ubc-01
 CP2K| Program compiled for                                Linux-x86_64-gfortran
 CP2K| Data directory path                                       /usr/share/cp2k
 CP2K| Input file name                                            input.BSSE.inp

 GLOBAL| Force Environment number                                              1
 GLOBAL| Basis set file name                                      ./BASIS_MOLOPT
 GLOBAL| Potential file name                                    ./GTH_POTENTIALS
 GLOBAL| MM Potential file name                                     MM_POTENTIAL
 GLOBAL| Coordinate file name                       coords_sur_2_PBE_relaxed.xyz
 GLOBAL| Method name                                                        CP2K
 GLOBAL| Project name                                        curv_sur_2_BSSE_PBE
 GLOBAL| Run type                                                           BSSE
 GLOBAL| FFT library                                                       FFTW3
 GLOBAL| Diagonalization library                                            ELPA
 GLOBAL| DGEMM library                                                      BLAS
 GLOBAL| Minimum number of eigenvectors for ELPA usage                        16
 GLOBAL| Orthonormality check for eigenvectors                          DISABLED
 GLOBAL| Matrix multiplication library                                 ScaLAPACK
 GLOBAL| All-to-all communication in single precision                          F
 GLOBAL| FFTs using library dependent lengths                                  F
 GLOBAL| Grid backend                                                       AUTO
 GLOBAL| Global print level                                                  LOW
 GLOBAL| MPI I/O enabled                                                       T
 GLOBAL| Total number of message passing processes                            16
 GLOBAL| Number of threads for this process                                    1
 GLOBAL| This output is from process                                           0
 GLOBAL| Stack size for threads created by OpenMP (OMP_STACKSIZE)        default
 GLOBAL| CPU model name                          AMD EPYC 7513 32-Core Processor

 MEMORY| system memory details [Kb]
 MEMORY|                        rank 0           min           max       average
 MEMORY| MemTotal            131832644     131832644     131832644     131832644
 MEMORY| MemFree              96547140      96547140      96547140      96547140
 MEMORY| Buffers                379800        379800        379800        379800
 MEMORY| Cached                 466292        466292        466292        466292
 MEMORY| Slab                   859056        859056        859056        859056
 MEMORY| SReclaimable           170492        170492        170492        170492
 MEMORY| MemLikelyFree        97563724      97563724      97563724      97563724


 GENERATE|  Preliminary Number of Bonds generated:                             0
 GENERATE|  Achieved consistency in connectivity generation.

 *******************************************************************************
 *******************************************************************************
 **                                                                           **
 **     #####                         ##              ##                      **
 **    ##   ##            ##          ##              ##                      **
 **   ##     ##                       ##            ######                    **
 **   ##     ##  ##   ##  ##   #####  ##  ##   ####   ##    #####    #####    **
 **   ##     ##  ##   ##  ##  ##      ## ##   ##      ##   ##   ##  ##   ##   **
 **   ##  ## ##  ##   ##  ##  ##      ####     ###    ##   ######   ######    **
 **    ##  ###   ##   ##  ##  ##      ## ##      ##   ##   ##       ##        **
 **     #######   #####   ##   #####  ##  ##  ####    ##    #####   ##        **
 **           ##                                                    ##        **
 **                                                                           **
 **                                                ... make the atoms dance   **
 **                                                                           **
 **            Copyright (C) by CP2K developers group (2000-2022)             **
 **                      J. Chem. Phys. 152, 194103 (2020)                    **
 **                                                                           **
 *******************************************************************************


 TOTAL NUMBERS AND MAXIMUM NUMBERS

  Total number of            - Atomic kinds:                                   2
                             - Atoms:                                        225
                             - Shell sets:                                   225
                             - Shells:                                      1125
                             - Primitive Cartesian functions:               1127
                             - Cartesian basis functions:                   3145
                             - Spherical basis functions:                   2921

  Maximum angular momentum of- Orbital basis functions:                        2
                             - Local part of the GTH pseudopotential:          2
                             - Non-local part of the GTH pseudopotential:      1


 SCF PARAMETERS         Density guess:                                    ATOMIC
                        --------------------------------------------------------
                        max_scf:                                             300
                        max_scf_history:                                       0
                        max_diis:                                              4
                        --------------------------------------------------------
                        eps_scf:                                        3.00E-07
                        eps_scf_history:                                0.00E+00
                        eps_diis:                                       1.00E-01
                        eps_eigval:                                     1.00E-05
                        --------------------------------------------------------
                        level_shift [a.u.]:                             0.000000
                        added MOs                                       100    0
                        --------------------------------------------------------
                        Mixing method:                            BROYDEN_MIXING
                                                charge density mixing in g-space
                        --------------------------------------------------------
                        Smear method:                                FERMI_DIRAC
                        Electronic temperature [K]:                        300.0
                        Electronic temperature [a.u.]:                  9.50E-04
                        Accuracy threshold:                             1.00E-10
                        --------------------------------------------------------
                        Outer loop SCF in use 
                        No variables optimised in outer loop
                        eps_scf                                         1.00E-06
                        max_scf                                              300
                        DIIS optimization
                        DIIS buffer length                                     3
                        step_size                                       5.00E-01

 -------------------------------------------------------------------------------
 -                                                                             -
 -  BSSE CALCULATION         FRAGMENT CONF: 10        FRAGMENT SUBCONF: 10     -
 -                           CHARGE =     0           MULTIPLICITY =     0     -
 -                                                                             -
 -                 ATOM INDEX                              ATOM NAME           -
 -                 ----------                              ---------           -
 -                      1                                   C                  -
 -                      2                                   C                  -
 -                      3                                   C                  -
 -                      4                                   C                  -
 -                      5                                   C                  -
 -                      6                                   C                  -
 -                      7                                   C                  -
 -                      8                                   C                  -
 -                      9                                   C                  -
 -                     10                                   C                  -
 -                     11                                   C                  -
 -                     12                                   C                  -
 -                     13                                   C                  -
 -                     14                                   C                  -
 -                     15                                   C                  -
 -                     16                                   C                  -
 -                     17                                   C                  -
 -                     18                                   C                  -
 -                     19                                   C                  -
 -                     20                                   C                  -
 -                     21                                   C                  -
 -                     22                                   C                  -
 -                     23                                   C                  -
 -                     24                                   C                  -
 -                     25                                   C                  -
 -                     26                                   C                  -
 -                     27                                   C                  -
 -                     28                                   C                  -
 -                     29                                   C                  -
 -                     30                                   C                  -
 -                     31                                   C                  -
 -                     32                                   C                  -
 -                     33                                   C                  -
 -                     34                                   C                  -
 -                     35                                   C                  -
 -                     36                                   C                  -
 -                     37                                   C                  -
 -                     38                                   C                  -
 -                     39                                   C                  -
 -                     40                                   C                  -
 -                     41                                   C                  -
 -                     42                                   C                  -
 -                     43                                   C                  -
 -                     44                                   C                  -
 -                     45                                   C                  -
 -                     46                                   C                  -
 -                     47                                   C                  -
 -                     48                                   C                  -
 -                     49                                   C                  -
 -                     50                                   C                  -
 -                     51                                   C                  -
 -                     52                                   C                  -
 -                     53                                   C                  -
 -                     54                                   C                  -
 -                     55                                   C                  -
 -                     56                                   C                  -
 -                     57                                   C                  -
 -                     58                                   C                  -
 -                     59                                   C                  -
 -                     60                                   C                  -
 -                     61                                   C                  -
 -                     62                                   C                  -
 -                     63                                   C                  -
 -                     64                                   C                  -
 -                     65                                   C                  -
 -                     66                                   C                  -
 -                     67                                   C                  -
 -                     68                                   C                  -
 -                     69                                   C                  -
 -                     70                                   C                  -
 -                     71                                   C                  -
 -                     72                                   C                  -
 -                     73                                   C                  -
 -                     74                                   C                  -
 -                     75                                   C                  -
 -                     76                                   C                  -
 -                     77                                   C                  -
 -                     78                                   C                  -
 -                     79                                   C                  -
 -                     80                                   C                  -
 -                     81                                   C                  -
 -                     82                                   C                  -
 -                     83                                   C                  -
 -                     84                                   C                  -
 -                     85                                   C                  -
 -                     86                                   C                  -
 -                     87                                   C                  -
 -                     88                                   C                  -
 -                     89                                   C                  -
 -                     90                                   C                  -
 -                     91                                   C                  -
 -                     92                                   C                  -
 -                     93                                   C                  -
 -                     94                                   C                  -
 -                     95                                   C                  -
 -                     96                                   C                  -
 -                     97                                   C                  -
 -                     98                                   C                  -
 -                     99                                   C                  -
 -                    100                                   C                  -
 -                    101                                   C                  -
 -                    102                                   C                  -
 -                    103                                   C                  -
 -                    104                                   C                  -
 -                    105                                   C                  -
 -                    106                                   C                  -
 -                    107                                   C                  -
 -                    108                                   C                  -
 -                    109                                   C                  -
 -                    110                                   C                  -
 -                    111                                   C                  -
 -                    112                                   C                  -
 -                    113                                   C                  -
 -                    114                                   C                  -
 -                    115                                   C                  -
 -                    116                                   C                  -
 -                    117                                   C                  -
 -                    118                                   C                  -
 -                    119                                   C                  -
 -                    120                                   C                  -
 -                    121                                   C                  -
 -                    122                                   C                  -
 -                    123                                   C                  -
 -                    124                                   C                  -
 -                    125                                   C                  -
 -                    126                                   C                  -
 -                    127                                   C                  -
 -                    128                                   C                  -
 -                    129                                   C                  -
 -                    130                                   C                  -
 -                    131                                   C                  -
 -                    132                                   C                  -
 -                    133                                   C                  -
 -                    134                                   C                  -
 -                    135                                   C                  -
 -                    136                                   C                  -
 -                    137                                   C                  -
 -                    138                                   C                  -
 -                    139                                   C                  -
 -                    140                                   C                  -
 -                    141                                   C                  -
 -                    142                                   C                  -
 -                    143                                   C                  -
 -                    144                                   C                  -
 -                    145                                   C                  -
 -                    146                                   C                  -
 -                    147                                   C                  -
 -                    148                                   C                  -
 -                    149                                   C                  -
 -                    150                                   C                  -
 -                    151                                   C                  -
 -                    152                                   C                  -
 -                    153                                   C                  -
 -                    154                                   C                  -
 -                    155                                   C                  -
 -                    156                                   C                  -
 -                    157                                   C                  -
 -                    158                                   C                  -
 -                    159                                   C                  -
 -                    160                                   C                  -
 -                    161                                   C                  -
 -                    162                                   C                  -
 -                    163                                   C                  -
 -                    164                                   C                  -
 -                    165                                   C                  -
 -                    166                                   C                  -
 -                    167                                   C                  -
 -                    168                                   C                  -
 -                    169                                   C                  -
 -                    170                                   C                  -
 -                    171                                   C                  -
 -                    172                                   C                  -
 -                    173                                   C                  -
 -                    174                                   C                  -
 -                    175                                   C                  -
 -                    176                                   C                  -
 -                    177                                   C                  -
 -                    178                                   C                  -
 -                    179                                   C                  -
 -                    180                                   C                  -
 -                    181                                   C                  -
 -                    182                                   C                  -
 -                    183                                   C                  -
 -                    184                                   C                  -
 -                    185                                   C                  -
 -                    186                                   C                  -
 -                    187                                   C                  -
 -                    188                                   C                  -
 -                    189                                   C                  -
 -                    190                                   C                  -
 -                    191                                   C                  -
 -                    192                                   C                  -
 -                    193                                   C                  -
 -                    194                                   C                  -
 -                    195                                   C                  -
 -                    196                                   C                  -
 -                    197                                   C                  -
 -                    198                                   C                  -
 -                    199                                   C                  -
 -                    200                                   C                  -
 -                    201                                   C                  -
 -                    202                                   C                  -
 -                    203                                   C                  -
 -                    204                                   C                  -
 -                    205                                   C                  -
 -                    206                                   C                  -
 -                    207                                   C                  -
 -                    208                                   C                  -
 -                    209                                   C                  -
 -                    210                                   C                  -
 -                    211                                   C                  -
 -                    212                                   C                  -
 -                    213                                   C                  -
 -                    214                                   C                  -
 -                    215                                   C                  -
 -                    216                                   C                  -
 -                    217                                   C                  -
 -                    218                                   C                  -
 -                    219                                   C                  -
 -                    220                                   C                  -
 -                    221                                   C                  -
 -                    222                                   C                  -
 -                    223                                   C                  -
 -                    224                                   C                  -
 -------------------------------------------------------------------------------

 *******************************************************************************
 *******************************************************************************
 **                                                                           **
 **     #####                         ##              ##                      **
 **    ##   ##            ##          ##              ##                      **
 **   ##     ##                       ##            ######                    **
 **   ##     ##  ##   ##  ##   #####  ##  ##   ####   ##    #####    #####    **
 **   ##     ##  ##   ##  ##  ##      ## ##   ##      ##   ##   ##  ##   ##   **
 **   ##  ## ##  ##   ##  ##  ##      ####     ###    ##   ######   ######    **
 **    ##  ###   ##   ##  ##  ##      ## ##      ##   ##   ##       ##        **
 **     #######   #####   ##   #####  ##  ##  ####    ##    #####   ##        **
 **           ##                                                    ##        **
 **                                                                           **
 **                                                ... make the atoms dance   **
 **                                                                           **
 **            Copyright (C) by CP2K developers group (2000-2022)             **
 **                      J. Chem. Phys. 152, 194103 (2020)                    **
 **                                                                           **
 *******************************************************************************


 TOTAL NUMBERS AND MAXIMUM NUMBERS

  Total number of            - Atomic kinds:                                   1
                             - Atoms:                                        224
                             - Shell sets:                                   224
                             - Shells:                                      1120
                             - Primitive Cartesian functions:               1120
                             - Cartesian basis functions:                   3136
                             - Spherical basis functions:                   2912

  Maximum angular momentum of- Orbital basis functions:                        2
                             - Local part of the GTH pseudopotential:          2
                             - Non-local part of the GTH pseudopotential:      0


 SCF PARAMETERS         Density guess:                                    ATOMIC
                        --------------------------------------------------------
                        max_scf:                                             300
                        max_scf_history:                                       0
                        max_diis:                                              4
                        --------------------------------------------------------
                        eps_scf:                                        3.00E-07
                        eps_scf_history:                                0.00E+00
                        eps_diis:                                       1.00E-01
                        eps_eigval:                                     1.00E-05
                        --------------------------------------------------------
                        level_shift [a.u.]:                             0.000000
                        added MOs                                       100    0
                        --------------------------------------------------------
                        Mixing method:                            BROYDEN_MIXING
                                                charge density mixing in g-space
                        --------------------------------------------------------
                        Smear method:                                FERMI_DIRAC
                        Electronic temperature [K]:                        300.0
                        Electronic temperature [a.u.]:                  9.50E-04
                        Accuracy threshold:                             1.00E-10
                        --------------------------------------------------------
                        Outer loop SCF in use 
                        No variables optimised in outer loop
                        eps_scf                                         1.00E-06
                        max_scf                                              300
                        DIIS optimization
                        DIIS buffer length                                     3
                        step_size                                       5.00E-01

 Number of electrons:                                                        896
 Number of occupied orbitals:                                                448
 Number of molecular orbitals:                                               548

 Number of orbital functions:                                               2912
 Number of independent orbital functions:                                   2912

 Extrapolation method: initial_guess


 SCF WAVEFUNCTION OPTIMIZATION

  Step     Update method      Time    Convergence         Total energy    Change
  ------------------------------------------------------------------------------
     1 NoMix/Diag. 0.10E+00    9.8     0.92855114     -1265.9121593170 -1.27E+03
     2 Broy./Diag. 0.10E+00   15.9     0.26359742     -1214.9946253192  5.09E+01
     3 Broy./Diag. 0.10E+00   16.6     0.05096028     -1222.9896793010 -8.00E+00
     4 Broy./Diag. 0.10E+00   16.4     0.14876035     -1255.9815089556 -3.30E+01
     5 Broy./Diag. 0.10E+00   16.5     0.12768495     -1269.1463072012 -1.32E+01
     6 Broy./Diag. 0.10E+00   16.5     0.08359928     -1270.0244906654 -8.78E-01
     7 Broy./Diag. 0.10E+00   16.7     0.03847276     -1270.7394853252 -7.15E-01
     8 Broy./Diag. 0.10E+00   16.8     0.01198564     -1271.6819603260 -9.42E-01
     9 Broy./Diag. 0.10E+00   17.3     0.00957597     -1272.1601729733 -4.78E-01
    10 Broy./Diag. 0.10E+00   17.3     0.01314543     -1272.5780135346 -4.18E-01
    11 Broy./Diag. 0.10E+00   17.4     0.00493302     -1272.7193181844 -1.41E-01
    12 Broy./Diag. 0.10E+00   17.5     0.00268577     -1273.0271956956 -3.08E-01
    13 Broy./Diag. 0.10E+00   17.4     0.00263463     -1273.2837986134 -2.57E-01
    14 Broy./Diag. 0.10E+00   17.5     0.00419732     -1273.4127999922 -1.29E-01
    15 Broy./Diag. 0.10E+00   17.4     0.00080185     -1273.4914809819 -7.87E-02
    16 Broy./Diag. 0.10E+00   17.4     0.00112930     -1273.4707109507  2.08E-02
    17 Broy./Diag. 0.10E+00   17.4     0.00233761     -1273.4555839786  1.51E-02
    18 Broy./Diag. 0.10E+00   17.5     0.00194279     -1273.5099943536 -5.44E-02
    19 Broy./Diag. 0.10E+00   17.6     0.00209133     -1273.5338882392 -2.39E-02
    20 Broy./Diag. 0.10E+00   17.5     0.00134366     -1273.5544980328 -2.06E-02
    21 Broy./Diag. 0.10E+00   17.4     0.00047129     -1273.5869961959 -3.25E-02
    22 Broy./Diag. 0.10E+00   17.4     0.00019771     -1273.6195103200 -3.25E-02
    23 Broy./Diag. 0.10E+00   17.4     0.00014060     -1273.6458137838 -2.63E-02
    24 Broy./Diag. 0.10E+00   17.5     0.00033124     -1273.6471084954 -1.29E-03
    25 Broy./Diag. 0.10E+00   17.5     0.00019573     -1273.6427937975  4.31E-03
    26 Broy./Diag. 0.10E+00   17.5     0.00020272     -1273.6368986807  5.90E-03
    27 Broy./Diag. 0.10E+00   17.5     0.00028741     -1273.6284236983  8.47E-03
    28 Broy./Diag. 0.10E+00   17.6     0.00033089     -1273.6272934629  1.13E-03
    29 Broy./Diag. 0.10E+00   17.5     0.00055854     -1273.6366635973 -9.37E-03
    30 Broy./Diag. 0.10E+00   17.5     0.00048188     -1273.6435977444 -6.93E-03
    31 Broy./Diag. 0.10E+00   17.5     0.00015325     -1273.6463051775 -2.71E-03
    32 Broy./Diag. 0.10E+00   17.5     0.00017303     -1273.6449244047  1.38E-03
    33 Broy./Diag. 0.10E+00   17.4     0.00014330     -1273.6435634387  1.36E-03
    34 Broy./Diag. 0.10E+00   17.4     0.00009674     -1273.6415868684  1.98E-03
    35 Broy./Diag. 0.10E+00   17.5     0.00014743     -1273.6439586183 -2.37E-03
    36 Broy./Diag. 0.10E+00   17.5     0.00020370     -1273.6459831582 -2.02E-03
    37 Broy./Diag. 0.10E+00   17.5     0.00009722     -1273.6488357099 -2.85E-03
    38 Broy./Diag. 0.10E+00   17.5     0.00002377     -1273.6511731862 -2.34E-03
    39 Broy./Diag. 0.10E+00   17.5     0.00009044     -1273.6525682280 -1.40E-03
    40 Broy./Diag. 0.10E+00   17.5     0.00010735     -1273.6544350585 -1.87E-03
    41 Broy./Diag. 0.10E+00   17.2     0.00004590     -1273.6554015567 -9.66E-04
    42 Broy./Diag. 0.10E+00   17.2     0.00005335     -1273.6569120628 -1.51E-03
    43 Broy./Diag. 0.10E+00   17.2     0.00004781     -1273.6583973213 -1.49E-03
    44 Broy./Diag. 0.10E+00   17.4     0.00001419     -1273.6588563239 -4.59E-04
    45 Broy./Diag. 0.10E+00   17.4     0.00001349     -1273.6587209794  1.35E-04
    46 Broy./Diag. 0.10E+00   17.3     0.00004057     -1273.6581500713  5.71E-04
    47 Broy./Diag. 0.10E+00   17.4     0.00003752     -1273.6573857175  7.64E-04
    48 Broy./Diag. 0.10E+00   17.4     0.00001692     -1273.6568065292  5.79E-04
    49 Broy./Diag. 0.10E+00   17.4     0.00001059     -1273.6565780075  2.29E-04
    50 Broy./Diag. 0.10E+00   20.5     0.00001318     -1273.6564513041  1.27E-04
    51 Broy./Diag. 0.10E+00   24.5     0.00001933     -1273.6563118595  1.39E-04
    52 Broy./Diag. 0.10E+00   25.7     0.00001586     -1273.6563322507 -2.04E-05
    53 Broy./Diag. 0.10E+00   24.7     0.00001590     -1273.6564232868 -9.10E-05
    54 Broy./Diag. 0.10E+00   26.0     0.00001031     -1273.6567227652 -2.99E-04
    55 Broy./Diag. 0.10E+00   21.4     0.00000458     -1273.6570550338 -3.32E-04
    56 Broy./Diag. 0.10E+00   15.7     0.00000833     -1273.6573083452 -2.53E-04
    57 Broy./Diag. 0.10E+00   15.5     0.00000873     -1273.6575237164 -2.15E-04
    58 Broy./Diag. 0.10E+00   15.5     0.00000484     -1273.6576601005 -1.36E-04
    59 Broy./Diag. 0.10E+00   15.5     0.00000201     -1273.6576960670 -3.60E-05
    60 Broy./Diag. 0.10E+00   15.5     0.00000407     -1273.6576918435  4.22E-06
    61 Broy./Diag. 0.10E+00   15.5     0.00000453     -1273.6576470758  4.48E-05
    62 Broy./Diag. 0.10E+00   15.7     0.00000300     -1273.6576183995  2.87E-05
    63 Broy./Diag. 0.10E+00   15.9     0.00000238     -1273.6575978393  2.06E-05
    64 Broy./Diag. 0.10E+00   16.1     0.00000200     -1273.6575509466  4.69E-05
    65 Broy./Diag. 0.10E+00   16.1     0.00000102     -1273.6575146247  3.63E-05
    66 Broy./Diag. 0.10E+00   16.0     0.00000210     -1273.6574806647  3.40E-05
    67 Broy./Diag. 0.10E+00   16.0     0.00000259     -1273.6574566839  2.40E-05
    68 Broy./Diag. 0.10E+00   16.0     0.00000212     -1273.6574611365 -4.45E-06
    69 Broy./Diag. 0.10E+00   16.1     0.00000155     -1273.6575033562 -4.22E-05
    70 Broy./Diag. 0.10E+00   16.1     0.00000156     -1273.6575427982 -3.94E-05
    71 Broy./Diag. 0.10E+00   16.1     0.00000127     -1273.6575676944 -2.49E-05
    72 Broy./Diag. 0.10E+00   16.1     0.00000073     -1273.6575829749 -1.53E-05
    73 Broy./Diag. 0.10E+00   16.0     0.00000085     -1273.6575853230 -2.35E-06
    74 Broy./Diag. 0.10E+00   16.0     0.00000063     -1273.6575947149 -9.39E-06
    75 Broy./Diag. 0.10E+00   16.1     0.00000025     -1273.6575994268 -4.71E-06

  *** SCF run converged in    75 steps ***


  Electronic density on regular grids:       -896.0000000000        0.0000000000
  Core density on regular grids:              895.9999999992       -0.0000000008
  Total charge density on r-space grids:       -0.0000000007
  Total charge density g-space grids:          -0.0000000007

  Overlap energy of the core charge distribution:               0.00005632564276
  Self energy of the core charge distribution:              -2987.04177559540722
  Core Hamiltonian energy:                                    937.74498371287325
  Hartree energy:                                            1167.03334637293665
  Exchange-correlation energy:                               -391.12778182923921
  Dispersion energy:                                           -0.25986067328793
  Electronic entropic energy:                                  -0.00656773959893
  Fermi energy:                                                -0.15103835500878

  Total energy:                                             -1273.65759942676164

  outer SCF iter =    1 RMS gradient =   0.25E-06 energy =      -1273.6575994268
  outer SCF loop converged in   1 iterations or   75 steps


 *** WARNING in qs_loc_utils.F:1500 :: User requested the calculation of ***
 *** the localized wavefunction but the section LOCALIZE was not         ***
 *** specified. Localization will not be performed!                      ***


 -------------------------------------------------------------------------------
 -                                                                             -
 -  BSSE CALCULATION         FRAGMENT CONF: 01        FRAGMENT SUBCONF: 01     -
 -                           CHARGE =     0           MULTIPLICITY =     0     -
 -                                                                             -
 -                 ATOM INDEX                              ATOM NAME           -
 -                 ----------                              ---------           -
 -                    225                                   Na                 -
 -------------------------------------------------------------------------------

 *******************************************************************************
 *******************************************************************************
 **                                                                           **
 **     #####                         ##              ##                      **
 **    ##   ##            ##          ##              ##                      **
 **   ##     ##                       ##            ######                    **
 **   ##     ##  ##   ##  ##   #####  ##  ##   ####   ##    #####    #####    **
 **   ##     ##  ##   ##  ##  ##      ## ##   ##      ##   ##   ##  ##   ##   **
 **   ##  ## ##  ##   ##  ##  ##      ####     ###    ##   ######   ######    **
 **    ##  ###   ##   ##  ##  ##      ## ##      ##   ##   ##       ##        **
 **     #######   #####   ##   #####  ##  ##  ####    ##    #####   ##        **
 **           ##                                                    ##        **
 **                                                                           **
 **                                                ... make the atoms dance   **
 **                                                                           **
 **            Copyright (C) by CP2K developers group (2000-2022)             **
 **                      J. Chem. Phys. 152, 194103 (2020)                    **
 **                                                                           **
 *******************************************************************************

 *** WARNING in qs_environment.F:1486 :: More added MOs requested than     ***
 *** available. The full set of unoccupied MOs will be used. Use           ***
 *** 'ADDED_MOS -1' to always use all available MOs and to get rid of this ***
 *** warning.                                                              ***



 TOTAL NUMBERS AND MAXIMUM NUMBERS

  Total number of            - Atomic kinds:                                   1
                             - Atoms:                                          1
                             - Shell sets:                                     1
                             - Shells:                                         5
                             - Primitive Cartesian functions:                  7
                             - Cartesian basis functions:                      9
                             - Spherical basis functions:                      9

  Maximum angular momentum of- Orbital basis functions:                        1
                             - Local part of the GTH pseudopotential:          2
                             - Non-local part of the GTH pseudopotential:      1


 SCF PARAMETERS         Density guess:                                    ATOMIC
                        --------------------------------------------------------
                        max_scf:                                             300
                        max_scf_history:                                       0
                        max_diis:                                              4
                        --------------------------------------------------------
                        eps_scf:                                        3.00E-07
                        eps_scf_history:                                0.00E+00
                        eps_diis:                                       1.00E-01
                        eps_eigval:                                     1.00E-05
                        --------------------------------------------------------
                        level_shift [a.u.]:                             0.000000
                        added MOs                                         4    0
                        --------------------------------------------------------
                        Mixing method:                            BROYDEN_MIXING
                                                charge density mixing in g-space
                        --------------------------------------------------------
                        Smear method:                                FERMI_DIRAC
                        Electronic temperature [K]:                        300.0
                        Electronic temperature [a.u.]:                  9.50E-04
                        Accuracy threshold:                             1.00E-10
                        --------------------------------------------------------
                        Outer loop SCF in use 
                        No variables optimised in outer loop
                        eps_scf                                         1.00E-06
                        max_scf                                              300
                        DIIS optimization
                        DIIS buffer length                                     3
                        step_size                                       5.00E-01

 Number of electrons:                                                          9
 Number of occupied orbitals:                                                  5
 Number of molecular orbitals:                                                 9

 Number of orbital functions:                                                  9
 Number of independent orbital functions:                                      9

 Extrapolation method: initial_guess


 SCF WAVEFUNCTION OPTIMIZATION

  Step     Update method      Time    Convergence         Total energy    Change
  ------------------------------------------------------------------------------
     1 NoMix/Diag. 0.10E+00    1.8     0.02077840       -47.1632620816 -4.72E+01
     2 Broy./Diag. 0.10E+00    4.0     0.00009672       -47.1203916671  4.29E-02
     3 Broy./Diag. 0.10E+00    7.0     0.00099686       -47.1612620690 -4.09E-02
     4 Broy./Diag. 0.10E+00    3.8     0.00002400       -47.1689307281 -7.67E-03
     5 Broy./Diag. 0.10E+00    4.0     0.00025248       -47.1689674376 -3.67E-05
     6 Broy./Diag. 0.10E+00    4.1     0.00000809       -47.1690912263 -1.24E-04
     7 Broy./Diag. 0.10E+00    4.5     0.00014091       -47.1674097840  1.68E-03
     8 Broy./Diag. 0.10E+00    7.5     0.00001764       -47.1664624344  9.47E-04
     9 Broy./Diag. 0.10E+00    4.5     0.00018660       -47.1658085372  6.54E-04
    10 Broy./Diag. 0.10E+00    4.7     0.00000972       -47.1654226318  3.86E-04
    11 Broy./Diag. 0.10E+00    4.8     0.00009319       -47.1652180408  2.05E-04
    12 Broy./Diag. 0.10E+00    5.2     0.00000301       -47.1651556649  6.24E-05
    13 Broy./Diag. 0.10E+00    7.3     0.00000819       -47.1652520304 -9.64E-05
    14 Broy./Diag. 0.10E+00    4.6     0.00000082       -47.1652691223 -1.71E-05
    15 Broy./Diag. 0.10E+00    4.6     0.00001233       -47.1651076516  1.61E-04
    16 Broy./Diag. 0.10E+00    4.7     0.00000254       -47.1650787250  2.89E-05
    17 Broy./Diag. 0.10E+00    6.1     0.00000272       -47.1651160167 -3.73E-05
    18 Broy./Diag. 0.10E+00    6.4     0.00000203       -47.1651575886 -4.16E-05
    19 Broy./Diag. 0.10E+00    4.5     0.00000145       -47.1651757150 -1.81E-05
    20 Broy./Diag. 0.10E+00    4.6     0.00000259       -47.1651714444  4.27E-06
    21 Broy./Diag. 0.10E+00    4.8     0.00000269       -47.1651503703  2.11E-05
    22 Broy./Diag. 0.10E+00    6.5     0.00000452       -47.1651195589  3.08E-05
    23 Broy./Diag. 0.10E+00    6.1     0.00000310       -47.1650992344  2.03E-05
    24 Broy./Diag. 0.10E+00    4.7     0.00000120       -47.1650971181  2.12E-06
    25 Broy./Diag. 0.10E+00    4.6     0.00000028       -47.1651050009 -7.88E-06

  *** SCF run converged in    25 steps ***


  Electronic density on regular grids:         -9.0003209111       -0.0003209111
  Core density on regular grids:                9.0000000000       -0.0000000000
  Total charge density on r-space grids:       -0.0003209111
  Total charge density g-space grids:          -0.0003209111

  Overlap energy of the core charge distribution:               0.00000000000000
  Self energy of the core charge distribution:                -96.60649019442629
  Core Hamiltonian energy:                                     29.76189461693910
  Hartree energy:                                              26.72515741974936
  Exchange-correlation energy:                                 -7.04434916652827
  Dispersion energy:                                           -0.00000063510881
  Electronic entropic energy:                                  -0.00131704147593
  Fermi energy:                                                -0.09176733483181

  Total energy:                                               -47.16510500085082

  outer SCF iter =    1 RMS gradient =   0.28E-06 energy =        -47.1651050009
  outer SCF loop converged in   1 iterations or   25 steps


 *** WARNING in qs_loc_utils.F:1500 :: User requested the calculation of ***
 *** the localized wavefunction but the section LOCALIZE was not         ***
 *** specified. Localization will not be performed!                      ***


 -------------------------------------------------------------------------------
 -                                                                             -
 -  BSSE CALCULATION         FRAGMENT CONF: 11        FRAGMENT SUBCONF: 10     -
 -                           CHARGE =     0           MULTIPLICITY =     0     -
 -                                                                             -
 -                 ATOM INDEX                              ATOM NAME           -
 -                 ----------                              ---------           -
 -                      1                                   C                  -
 -                      2                                   C                  -
 -                      3                                   C                  -
 -                      4                                   C                  -
 -                      5                                   C                  -
 -                      6                                   C                  -
 -                      7                                   C                  -
 -                      8                                   C                  -
 -                      9                                   C                  -
 -                     10                                   C                  -
 -                     11                                   C                  -
 -                     12                                   C                  -
 -                     13                                   C                  -
 -                     14                                   C                  -
 -                     15                                   C                  -
 -                     16                                   C                  -
 -                     17                                   C                  -
 -                     18                                   C                  -
 -                     19                                   C                  -
 -                     20                                   C                  -
 -                     21                                   C                  -
 -                     22                                   C                  -
 -                     23                                   C                  -
 -                     24                                   C                  -
 -                     25                                   C                  -
 -                     26                                   C                  -
 -                     27                                   C                  -
 -                     28                                   C                  -
 -                     29                                   C                  -
 -                     30                                   C                  -
 -                     31                                   C                  -
 -                     32                                   C                  -
 -                     33                                   C                  -
 -                     34                                   C                  -
 -                     35                                   C                  -
 -                     36                                   C                  -
 -                     37                                   C                  -
 -                     38                                   C                  -
 -                     39                                   C                  -
 -                     40                                   C                  -
 -                     41                                   C                  -
 -                     42                                   C                  -
 -                     43                                   C                  -
 -                     44                                   C                  -
 -                     45                                   C                  -
 -                     46                                   C                  -
 -                     47                                   C                  -
 -                     48                                   C                  -
 -                     49                                   C                  -
 -                     50                                   C                  -
 -                     51                                   C                  -
 -                     52                                   C                  -
 -                     53                                   C                  -
 -                     54                                   C                  -
 -                     55                                   C                  -
 -                     56                                   C                  -
 -                     57                                   C                  -
 -                     58                                   C                  -
 -                     59                                   C                  -
 -                     60                                   C                  -
 -                     61                                   C                  -
 -                     62                                   C                  -
 -                     63                                   C                  -
 -                     64                                   C                  -
 -                     65                                   C                  -
 -                     66                                   C                  -
 -                     67                                   C                  -
 -                     68                                   C                  -
 -                     69                                   C                  -
 -                     70                                   C                  -
 -                     71                                   C                  -
 -                     72                                   C                  -
 -                     73                                   C                  -
 -                     74                                   C                  -
 -                     75                                   C                  -
 -                     76                                   C                  -
 -                     77                                   C                  -
 -                     78                                   C                  -
 -                     79                                   C                  -
 -                     80                                   C                  -
 -                     81                                   C                  -
 -                     82                                   C                  -
 -                     83                                   C                  -
 -                     84                                   C                  -
 -                     85                                   C                  -
 -                     86                                   C                  -
 -                     87                                   C                  -
 -                     88                                   C                  -
 -                     89                                   C                  -
 -                     90                                   C                  -
 -                     91                                   C                  -
 -                     92                                   C                  -
 -                     93                                   C                  -
 -                     94                                   C                  -
 -                     95                                   C                  -
 -                     96                                   C                  -
 -                     97                                   C                  -
 -                     98                                   C                  -
 -                     99                                   C                  -
 -                    100                                   C                  -
 -                    101                                   C                  -
 -                    102                                   C                  -
 -                    103                                   C                  -
 -                    104                                   C                  -
 -                    105                                   C                  -
 -                    106                                   C                  -
 -                    107                                   C                  -
 -                    108                                   C                  -
 -                    109                                   C                  -
 -                    110                                   C                  -
 -                    111                                   C                  -
 -                    112                                   C                  -
 -                    113                                   C                  -
 -                    114                                   C                  -
 -                    115                                   C                  -
 -                    116                                   C                  -
 -                    117                                   C                  -
 -                    118                                   C                  -
 -                    119                                   C                  -
 -                    120                                   C                  -
 -                    121                                   C                  -
 -                    122                                   C                  -
 -                    123                                   C                  -
 -                    124                                   C                  -
 -                    125                                   C                  -
 -                    126                                   C                  -
 -                    127                                   C                  -
 -                    128                                   C                  -
 -                    129                                   C                  -
 -                    130                                   C                  -
 -                    131                                   C                  -
 -                    132                                   C                  -
 -                    133                                   C                  -
 -                    134                                   C                  -
 -                    135                                   C                  -
 -                    136                                   C                  -
 -                    137                                   C                  -
 -                    138                                   C                  -
 -                    139                                   C                  -
 -                    140                                   C                  -
 -                    141                                   C                  -
 -                    142                                   C                  -
 -                    143                                   C                  -
 -                    144                                   C                  -
 -                    145                                   C                  -
 -                    146                                   C                  -
 -                    147                                   C                  -
 -                    148                                   C                  -
 -                    149                                   C                  -
 -                    150                                   C                  -
 -                    151                                   C                  -
 -                    152                                   C                  -
 -                    153                                   C                  -
 -                    154                                   C                  -
 -                    155                                   C                  -
 -                    156                                   C                  -
 -                    157                                   C                  -
 -                    158                                   C                  -
 -                    159                                   C                  -
 -                    160                                   C                  -
 -                    161                                   C                  -
 -                    162                                   C                  -
 -                    163                                   C                  -
 -                    164                                   C                  -
 -                    165                                   C                  -
 -                    166                                   C                  -
 -                    167                                   C                  -
 -                    168                                   C                  -
 -                    169                                   C                  -
 -                    170                                   C                  -
 -                    171                                   C                  -
 -                    172                                   C                  -
 -                    173                                   C                  -
 -                    174                                   C                  -
 -                    175                                   C                  -
 -                    176                                   C                  -
 -                    177                                   C                  -
 -                    178                                   C                  -
 -                    179                                   C                  -
 -                    180                                   C                  -
 -                    181                                   C                  -
 -                    182                                   C                  -
 -                    183                                   C                  -
 -                    184                                   C                  -
 -                    185                                   C                  -
 -                    186                                   C                  -
 -                    187                                   C                  -
 -                    188                                   C                  -
 -                    189                                   C                  -
 -                    190                                   C                  -
 -                    191                                   C                  -
 -                    192                                   C                  -
 -                    193                                   C                  -
 -                    194                                   C                  -
 -                    195                                   C                  -
 -                    196                                   C                  -
 -                    197                                   C                  -
 -                    198                                   C                  -
 -                    199                                   C                  -
 -                    200                                   C                  -
 -                    201                                   C                  -
 -                    202                                   C                  -
 -                    203                                   C                  -
 -                    204                                   C                  -
 -                    205                                   C                  -
 -                    206                                   C                  -
 -                    207                                   C                  -
 -                    208                                   C                  -
 -                    209                                   C                  -
 -                    210                                   C                  -
 -                    211                                   C                  -
 -                    212                                   C                  -
 -                    213                                   C                  -
 -                    214                                   C                  -
 -                    215                                   C                  -
 -                    216                                   C                  -
 -                    217                                   C                  -
 -                    218                                   C                  -
 -                    219                                   C                  -
 -                    220                                   C                  -
 -                    221                                   C                  -
 -                    222                                   C                  -
 -                    223                                   C                  -
 -                    224                                   C                  -
 -                    225                                   Na_ghost           -
 -------------------------------------------------------------------------------

 *******************************************************************************
 *******************************************************************************
 **                                                                           **
 **     #####                         ##              ##                      **
 **    ##   ##            ##          ##              ##                      **
 **   ##     ##                       ##            ######                    **
 **   ##     ##  ##   ##  ##   #####  ##  ##   ####   ##    #####    #####    **
 **   ##     ##  ##   ##  ##  ##      ## ##   ##      ##   ##   ##  ##   ##   **
 **   ##  ## ##  ##   ##  ##  ##      ####     ###    ##   ######   ######    **
 **    ##  ###   ##   ##  ##  ##      ## ##      ##   ##   ##       ##        **
 **     #######   #####   ##   #####  ##  ##  ####    ##    #####   ##        **
 **           ##                                                    ##        **
 **                                                                           **
 **                                                ... make the atoms dance   **
 **                                                                           **
 **            Copyright (C) by CP2K developers group (2000-2022)             **
 **                      J. Chem. Phys. 152, 194103 (2020)                    **
 **                                                                           **
 *******************************************************************************


 TOTAL NUMBERS AND MAXIMUM NUMBERS

  Total number of            - Atomic kinds:                                   2
                             - Atoms:                                        225
                             - Shell sets:                                   225
                             - Shells:                                      1125
                             - Primitive Cartesian functions:               1127
                             - Cartesian basis functions:                   3145
                             - Spherical basis functions:                   2921

  Maximum angular momentum of- Orbital basis functions:                        2
                             - Local part of the GTH pseudopotential:          2
                             - Non-local part of the GTH pseudopotential:      0


 SCF PARAMETERS         Density guess:                                    ATOMIC
                        --------------------------------------------------------
                        max_scf:                                             300
                        max_scf_history:                                       0
                        max_diis:                                              4
                        --------------------------------------------------------
                        eps_scf:                                        3.00E-07
                        eps_scf_history:                                0.00E+00
                        eps_diis:                                       1.00E-01
                        eps_eigval:                                     1.00E-05
                        --------------------------------------------------------
                        level_shift [a.u.]:                             0.000000
                        added MOs                                       100    0
                        --------------------------------------------------------
                        Mixing method:                            BROYDEN_MIXING
                                                charge density mixing in g-space
                        --------------------------------------------------------
                        Smear method:                                FERMI_DIRAC
                        Electronic temperature [K]:                        300.0
                        Electronic temperature [a.u.]:                  9.50E-04
                        Accuracy threshold:                             1.00E-10
                        --------------------------------------------------------
                        Outer loop SCF in use 
                        No variables optimised in outer loop
                        eps_scf                                         1.00E-06
                        max_scf                                              300
                        DIIS optimization
                        DIIS buffer length                                     3
                        step_size                                       5.00E-01

 Number of electrons:                                                        896
 Number of occupied orbitals:                                                448
 Number of molecular orbitals:                                               548

 Number of orbital functions:                                               2921
 Number of independent orbital functions:                                   2921

 Extrapolation method: initial_guess


 SCF WAVEFUNCTION OPTIMIZATION

  Step     Update method      Time    Convergence         Total energy    Change
  ------------------------------------------------------------------------------
     1 NoMix/Diag. 0.10E+00    9.4     0.92855221     -1265.9121593170 -1.27E+03
     2 Broy./Diag. 0.10E+00   15.4     0.26377593     -1214.9880120985  5.09E+01
     3 Broy./Diag. 0.10E+00   15.7     0.05274442     -1222.9765730595 -7.99E+00
     4 Broy./Diag. 0.10E+00   15.8     0.14737339     -1255.9680366025 -3.30E+01
     5 Broy./Diag. 0.10E+00   16.0     0.12598555     -1269.1470658410 -1.32E+01
     6 Broy./Diag. 0.10E+00   16.0     0.08424511     -1270.0269934781 -8.80E-01
     7 Broy./Diag. 0.10E+00   16.3     0.04017725     -1270.7403821626 -7.13E-01
     8 Broy./Diag. 0.10E+00   16.6     0.01095340     -1271.6818074060 -9.41E-01
     9 Broy./Diag. 0.10E+00   16.8     0.01218098     -1272.1586210647 -4.77E-01
    10 Broy./Diag. 0.10E+00   17.2     0.01296054     -1272.5776092250 -4.19E-01
    11 Broy./Diag. 0.10E+00   17.5     0.00533489     -1272.7167724638 -1.39E-01
    12 Broy./Diag. 0.10E+00   17.7     0.00288177     -1273.0042402783 -2.87E-01
    13 Broy./Diag. 0.10E+00   17.4     0.00347240     -1273.2705629237 -2.66E-01
    14 Broy./Diag. 0.10E+00   17.4     0.00443803     -1273.3543122069 -8.37E-02
    15 Broy./Diag. 0.10E+00   17.5     0.00666704     -1273.3959484158 -4.16E-02
    16 Broy./Diag. 0.10E+00   17.5     0.00374887     -1273.4408735084 -4.49E-02
    17 Broy./Diag. 0.10E+00   17.5     0.00118013     -1273.5136290275 -7.28E-02
    18 Broy./Diag. 0.10E+00   17.4     0.00064637     -1273.5693794580 -5.58E-02
    19 Broy./Diag. 0.10E+00   17.4     0.00085537     -1273.5945239258 -2.51E-02
    20 Broy./Diag. 0.10E+00   17.5     0.00038270     -1273.5900124197  4.51E-03
    21 Broy./Diag. 0.10E+00   17.5     0.00071793     -1273.5758969785  1.41E-02
    22 Broy./Diag. 0.10E+00   17.5     0.00091946     -1273.5934530007 -1.76E-02
    23 Broy./Diag. 0.10E+00   17.5     0.00088312     -1273.6158453500 -2.24E-02
    24 Broy./Diag. 0.10E+00   17.4     0.00089692     -1273.6303024854 -1.45E-02
    25 Broy./Diag. 0.10E+00   17.5     0.00157925     -1273.6402430215 -9.94E-03
    26 Broy./Diag. 0.10E+00   17.5     0.00108846     -1273.6391427769  1.10E-03
    27 Broy./Diag. 0.10E+00   17.4     0.00020078     -1273.6346341573  4.51E-03
    28 Broy./Diag. 0.10E+00   17.5     0.00027287     -1273.6319027971  2.73E-03
    29 Broy./Diag. 0.10E+00   17.5     0.00057396     -1273.6311702972  7.32E-04
    30 Broy./Diag. 0.10E+00   17.5     0.00064281     -1273.6320263944 -8.56E-04
    31 Broy./Diag. 0.10E+00   17.5     0.00015315     -1273.6402997175 -8.27E-03
    32 Broy./Diag. 0.10E+00   17.5     0.00013151     -1273.6475977018 -7.30E-03
    33 Broy./Diag. 0.10E+00   17.5     0.00020248     -1273.6551973555 -7.60E-03
    34 Broy./Diag. 0.10E+00   17.5     0.00025362     -1273.6581762923 -2.98E-03
    35 Broy./Diag. 0.10E+00   17.3     0.00016921     -1273.6594137561 -1.24E-03
    36 Broy./Diag. 0.10E+00   17.5     0.00017864     -1273.6595292014 -1.15E-04
    37 Broy./Diag. 0.10E+00   17.5     0.00011852     -1273.6590595315  4.70E-04
    38 Broy./Diag. 0.10E+00   17.4     0.00005880     -1273.6588135654  2.46E-04
    39 Broy./Diag. 0.10E+00   17.5     0.00009016     -1273.6576156249  1.20E-03
    40 Broy./Diag. 0.10E+00   17.5     0.00013826     -1273.6564963649  1.12E-03
    41 Broy./Diag. 0.10E+00   17.6     0.00008707     -1273.6567824366 -2.86E-04
    42 Broy./Diag. 0.10E+00   17.4     0.00008363     -1273.6575458966 -7.63E-04
    43 Broy./Diag. 0.10E+00   17.4     0.00007395     -1273.6596312484 -2.09E-03
    44 Broy./Diag. 0.10E+00   17.5     0.00004436     -1273.6614853988 -1.85E-03
    45 Broy./Diag. 0.10E+00   17.5     0.00005404     -1273.6618391873 -3.54E-04
    46 Broy./Diag. 0.10E+00   17.5     0.00007543     -1273.6618223019  1.69E-05
    47 Broy./Diag. 0.10E+00   17.5     0.00009072     -1273.6615679265  2.54E-04
    48 Broy./Diag. 0.10E+00   17.4     0.00006837     -1273.6612332091  3.35E-04
    49 Broy./Diag. 0.10E+00   17.4     0.00003003     -1273.6610557253  1.77E-04
    50 Broy./Diag. 0.10E+00   17.4     0.00004606     -1273.6606082786  4.47E-04
    51 Broy./Diag. 0.10E+00   17.5     0.00004179     -1273.6600784442  5.30E-04
    52 Broy./Diag. 0.10E+00   17.5     0.00002408     -1273.6597027192  3.76E-04
[...]
   110 Broy./Diag. 0.10E+00   15.8     0.00000050     -1320.8710655412 -7.94E-06
   111 Broy./Diag. 0.10E+00   15.8     0.00000055     -1320.8710744462 -8.91E-06
   112 Broy./Diag. 0.10E+00   15.8     0.00000034     -1320.8710859382 -1.15E-05
   113 Broy./Diag. 0.10E+00   15.7     0.00000032     -1320.8710935362 -7.60E-06
   114 Broy./Diag. 0.10E+00   15.8     0.00000019     -1320.8710963393 -2.80E-06

  *** SCF run converged in   114 steps ***


  Electronic density on regular grids:       -905.0003227061       -0.0003227061
  Core density on regular grids:              904.9999999992       -0.0000000008
  Total charge density on r-space grids:       -0.0003227069
  Total charge density g-space grids:          -0.0003227069

  Overlap energy of the core charge distribution:               0.00005632564276
  Self energy of the core charge distribution:              -3083.64826578983366
  Core Hamiltonian energy:                                    967.90835018373923
  Hartree energy:                                            1193.56586916319611
  Exchange-correlation energy:                               -398.42630429302022
  Dispersion energy:                                           -0.26330724688364
  Electronic entropic energy:                                  -0.00749468243232
  Fermi energy:                                                -0.14319210548724

  Total energy:                                             -1320.87109633925047

  outer SCF iter =    1 RMS gradient =   0.19E-06 energy =      -1320.8710963393
  outer SCF loop converged in   1 iterations or  114 steps


 *** WARNING in qs_loc_utils.F:1500 :: User requested the calculation of ***
 *** the localized wavefunction but the section LOCALIZE was not         ***
 *** specified. Localization will not be performed!                      ***


 -------------------------------------------------------------------------------
 -                                                                             -
 -                                 BSSE RESULTS                                -
 -                                                                             -
 -                 CP-corrected Total energy:    -1320.869363                  -
 -                                                                             -
 -                       1-body contribution:    -1273.657599                  -
 -                       1-body contribution:      -47.165105                  -
 -                                                                             -
 -                       2-body contribution:       -0.046659                  -
 -                 BSSE-free interaction energy:       -0.046659               -
 -------------------------------------------------------------------------------

 -------------------------------------------------------------------------------
 -                                                                             -
 -                                DBCSR STATISTICS                             -
 -                                                                             -
 -------------------------------------------------------------------------------
 COUNTER                                    TOTAL       BLAS       SMM       ACC
 flops     9 x     9 x     9               102060     100.0%      0.0%      0.0%
 flops     9 x     9 x    32               699840     100.0%      0.0%      0.0%
 flops     9 x     9 x   132              1796256     100.0%      0.0%      0.0%
 flops     9 x     9 x   137              2530116     100.0%      0.0%      0.0%
 flops     9 x     9 x   160              5132160     100.0%      0.0%      0.0%
 flops     9 x    13 x     9              6539130     100.0%      0.0%      0.0%
 flops    13 x     9 x     9              6633900     100.0%      0.0%      0.0%
 flops     9 x     9 x   128              8211456     100.0%      0.0%      0.0%
 flops     9 x    13 x    32             69750720     100.0%      0.0%      0.0%
 flops    13 x     9 x    32             70761600     100.0%      0.0%      0.0%
 flops     9 x    13 x   132            179026848     100.0%      0.0%      0.0%
 flops    13 x     9 x   132            181621440     100.0%      0.0%      0.0%
 flops     9 x    13 x   137            252168228     100.0%      0.0%      0.0%
 flops    13 x     9 x   137            255822840     100.0%      0.0%      0.0%
 flops     9 x    13 x   160            511505280     100.0%      0.0%      0.0%
 flops    13 x     9 x   160            518918400     100.0%      0.0%      0.0%
 flops     9 x    13 x   128            818408448     100.0%      0.0%      0.0%
 flops    13 x     9 x   128            830269440     100.0%      0.0%      0.0%
 flops    13 x    13 x     9           1976691600     100.0%      0.0%      0.0%
 flops    13 x    13 x    32          21084710400     100.0%      0.0%      0.0%
 flops    13 x    13 x   137          76227084960     100.0%      0.0%      0.0%
 flops    13 x    13 x   132         102436551360     100.0%      0.0%      0.0%
 flops    13 x    13 x   160         213189849600     100.0%      0.0%      0.0%
 flops    13 x    13 x   128         341103759360     100.0%      0.0%      0.0%
 flops inhomo. stacks                           0       0.0%      0.0%      0.0%
 flops total                       759.738545E+09     100.0%      0.0%      0.0%
 flops max/rank                     52.000121E+09     100.0%      0.0%      0.0%
 matmuls inhomo. stacks                         0       0.0%      0.0%      0.0%
 matmuls total                           18503785     100.0%      0.0%      0.0%
 number of processed stacks                 28153     100.0%      0.0%      0.0%
 average stack size                                   657.3       0.0       0.0
 marketing flops                     2.144749E+12
 -------------------------------------------------------------------------------
 # multiplications                            343
 max memory usage/rank               2.029892E+09
 # max total images/rank                        1
 # max 3D layers                                1
 # MPI messages exchanged                   32928
 MPI messages size (bytes):
  total size                        21.700411E+09
  min size                           0.000000E+00
  max size                         943.360000E+03
  average size                     659.026125E+03
 MPI breakdown and total messages size (bytes):
             size <=      128                2250                        0
       128 < size <=     8192                 150                    97200
      8192 < size <=    32768                   0                        0
     32768 < size <=   131072                1080                 56784240
    131072 < size <=  4194304               29448              21643539552
   4194304 < size <= 16777216                   0                        0
  16777216 < size                               0                        0
 -------------------------------------------------------------------------------
 -                                                                             -
 -                      DBCSR MESSAGE PASSING PERFORMANCE                      -
 -                                                                             -
 -------------------------------------------------------------------------------
 ROUTINE             CALLS      AVE VOLUME [Bytes]
 MP_Bcast               25                     12.
 MP_Allreduce         2473                      8.
 MP_Alltoall          9664                 611406.
 MP_ISend             5488                 255176.
 MP_IRecv             5488                 234432.
 -------------------------------------------------------------------------------

 -------------------------------------------------------------------------------
 -                                                                             -
 -                                DBM STATISTICS                               -
 -                                                                             -
 -------------------------------------------------------------------------------
    M  x    N  x    K                                          COUNT     PERCENT
 -------------------------------------------------------------------------------

 -------------------------------------------------------------------------------
 -                                                                             -
 -                                GRID STATISTICS                              -
 -                                                                             -
 -------------------------------------------------------------------------------
 LP    KERNEL             BACKEND                              COUNT     PERCENT
 4     collocate ortho    REF                               38050096      49.89%
 4     integrate ortho    REF                               37577424      49.27%
 3     collocate ortho    REF                                 307254       0.40%
 3     integrate ortho    REF                                 303507       0.40%
 2     collocate ortho    REF                                  13328       0.02%
 2     integrate ortho    REF                                  13132       0.02%
 0     collocate general  REF                                  10800       0.01%
 -------------------------------------------------------------------------------

 MEMORY| Estimated peak process memory [MiB]                                1936

 -------------------------------------------------------------------------------
 -                                                                             -
 -                         MESSAGE PASSING PERFORMANCE                         -
 -                                                                             -
 -------------------------------------------------------------------------------

 ROUTINE             CALLS      AVE VOLUME [Bytes]
 MP_Group               24
 MP_Bcast              839                1153970.
 MP_Allreduce         4447                   1719.
 MP_Sync               392
 MP_Alltoall          4559               63112948.
 MP_SendRecv         14556                 475476.
 MP_ISendRecv        10290                 444928.
 MP_Wait             25547
 MP_comm_split          25
 MP_ISend            11096                3185672.
 MP_IRecv            11096                3185796.
 MP_Recv               253                 731218.
 -------------------------------------------------------------------------------


 -------------------------------------------------------------------------------
 -                                                                             -
 -                           R E F E R E N C E S                               -
 -                                                                             -
 -------------------------------------------------------------------------------
 
 CP2K version 2023.1, the CP2K developers group (2023).
 CP2K is freely available from https://www.cp2k.org/ .

 Kuehne,Thomas D.; Iannuzzi,Marcella; Del Ben,Mauro;
 Rybkin,Vladimir V.; Seewald,Patrick; Stein,Frederick; Laino,Teodoro;
 Khaliullin,Rustam Z.; Schuett,Ole; Schiffmann,Florian; Golze,Dorothea;
 Wilhelm,Jan; Chulkov,Sergey; Bani-Hashemian,Mohammad Hossein;
 Weber,Valery; Borstnik,Urban; Taillefumier,Mathieu;
 Jakobovits,Alice Shoshana; Lazzaro,Alfio; Pabst,Hans; Mueller,Tiziano;
 Schade,Robert; Guidon,Manuel; Andermatt,Samuel; Holmberg,Nico;
 Schenter,Gregory K.; Hehn,Anna; Bussy,Augustin; Belleflamme,Fabian;
 Tabacchi,Gloria; Gloess,Andreas; Lass,Michael; Bethune,Iain;
 Mundy,Christopher J.; Plessl,Christian; Watkins,Matt;
 VandeVondele,Joost; Krack,Matthias; Hutter,Juerg. 
 The Journal of Chemical Physics, 152 (19), (2020). 
 CP2K: An electronic structure and molecular dynamics software package -
 Quickstep: Efficient and accurate electronic structure calculations.
 https://doi.org/10.1063/5.0007045

 Goerigk, Lars; Hansen, Andreas; Bauer, Christoph; Ehrlich, Stephan;
 Najibi, Asim; Grimme, Stefan. , 19 (48), (2017). 
 A look at the density functional theory zoo with the advanced GMTKN55 database
 for general main group thermochemistry, kinetics and noncovalent interactions.
 https://doi.org/10.1039/C7CP04913G

 Schuett, Ole; Messmer, Peter; Hutter, Juerg; VandeVondele, Joost. 
 Electronic Structure Calculations on Graphics Processing Units, John
 Wiley & Sons, Ltd, 173-190 (2016). 
 GPU-Accelerated Sparse Matrix-Matrix Multiplication for
 Linear Scaling Density Functional Theory.
 https://doi.org/10.1002/9781118670712.ch8

 Borstnik, U; VandeVondele, J; Weber, V; Hutter, J. 
 PARALLEL COMPUTING, 40 (5-6), 47-58 (2014). 
 Sparse matrix multiplication: The distributed block-compressed sparse
 row library.
 https://doi.org/10.1016/j.parco.2014.03.012

 Hutter, J; Iannuzzi, M; Schiffmann, F; VandeVondele, J. 
 WIREs Comput Mol Sci., 4 (1), 15-25 (2014). 
 CP2K: atomistic simulations of condensed matter systems.
 https://doi.org/10.1002/wcms.1159

 Marek, A; Blum, V; Johanni, R; Havu, V; Lang, B; Auckenthaler, T;
 Heinecke, A; Bungartz, H; Lederer, H. 
 Journal of Physics: Condensed Matter, 26 (21), (2014). 
 The ELPA library: scalable parallel eigenvalue solutions for
 electronic structure
 theory and computational science.
 https://doi.org/10.1088/0953-8984/26/21/213201

 Grimme, S; Ehrlich, S; Goerigk, L. 
 JOURNAL OF COMPUTATIONAL CHEMISTRY, 32, 1456 (2011). 
 Effect of the damping function in dispersion corrected density functional theory.
 https://doi.org/10.1002/jcc.21759

 Grimme, S; Antony, J; Ehrlich, S; Krieg, H. 
 JOURNAL OF CHEMICAL PHYSICS, 132 (15), 154104 (2010). 
 A consistent and accurate ab initio parametrization of density
 functional dispersion correction (DFT-D) for the 94 elements H-Pu.
 https://doi.org/10.1063/1.3382344

 VandeVondele, J; Hutter, J. 
 JOURNAL OF CHEMICAL PHYSICS, 127 (11), 114105 (2007). 
 Gaussian basis sets for accurate calculations on molecular systems in
 gas and condensed phases.
 https://doi.org/10.1063/1.2770708

 Krack, M. 
 THEORETICAL CHEMISTRY ACCOUNTS, 114 (1-3), 145-152 (2005). 
 Pseudopotentials for H to Kr optimized for gradient-corrected
 exchange-correlation functionals.
 https://doi.org/10.1007/s00214-005-0655-y

 VandeVondele, J; Krack, M; Mohamed, F; Parrinello, M; Chassaing, T;
 Hutter, J. COMPUTER PHYSICS COMMUNICATIONS, 167 (2), 103-128 (2005). 
 QUICKSTEP: Fast and accurate density functional calculations using a
 mixed Gaussian and plane waves approach.
 https://doi.org/10.1016/j.cpc.2004.12.014

 Frigo, M; Johnson, SG. 
 PROCEEDINGS OF THE IEEE, 93 (2), 216-231 (2005). 
 The design and implementation of FFTW3.
 https://doi.org/10.1109/JPROC.2004.840301

 Hartwigsen, C; Goedecker, S; Hutter, J. 
 PHYSICAL REVIEW B, 58 (7), 3641-3662 (1998). 
 Relativistic separable dual-space Gaussian pseudopotentials from H to Rn.
 https://doi.org/10.1103/PhysRevB.58.3641

 Lippert, G; Hutter, J; Parrinello, M. 
 MOLECULAR PHYSICS, 92 (3), 477-487 (1997). 
 A hybrid Gaussian and plane wave density functional scheme.
 https://doi.org/10.1080/002689797170220

 Perdew, JP; Burke, K; Ernzerhof, M. 
 PHYSICAL REVIEW LETTERS, 77 (18), 3865-3868 (1996). 
 Generalized gradient approximation made simple.
 https://doi.org/10.1103/PhysRevLett.77.3865

 Goedecker, S; Teter, M; Hutter, J. 
 PHYSICAL REVIEW B, 54 (3), 1703-1710 (1996). 
 Separable dual-space Gaussian pseudopotentials.
 https://doi.org/10.1103/PhysRevB.54.1703


 -------------------------------------------------------------------------------
 -                                                                             -
 -                                T I M I N G                                  -
 -                                                                             -
 -------------------------------------------------------------------------------
 SUBROUTINE                       CALLS  ASD         SELF TIME        TOTAL TIME
                                MAXIMUM       AVERAGE  MAXIMUM  AVERAGE  MAXIMUM
 CP2K                                 1  1.0    0.192    0.213 8469.911 8469.912
 qs_energies                          5  2.0    0.009    0.010 8459.990 8460.329
 scf_env_do_scf                       5  3.0    0.002    0.013 8423.565 8423.967
 scf_env_do_scf_inner_loop          343  4.0    0.050    0.073 8423.563 8423.953
 qs_scf_new_mos                     343  5.0    0.038    0.064 4630.599 4631.915
 eigensolver                        343  6.0    0.042    0.071 4501.581 4502.597
 cp_fm_diag_elpa                    318  7.0    0.007    0.017 3253.233 3254.410
 cp_fm_diag_elpa_base               318  8.0 3244.898 3247.452 3250.484 3250.661
 qs_ks_update_qs_env                343  5.0    0.008    0.023 1736.730 1737.637
 rebuild_ks_matrix                  343  6.0    0.004    0.005 1731.657 1732.625
 qs_ks_build_kohn_sham_matrix       343  7.0    0.115    0.136 1731.653 1732.620
 qs_rho_update_rho_low              348  5.0    0.005    0.006 1308.335 1308.692
 calculate_rho_elec                 348  6.0    3.659    3.842 1308.330 1308.687
 cp_fm_triangular_multiply         1029  7.0 1243.978 1246.788 1243.978 1246.788
 density_rs2pw                      348  7.0    0.048    0.061 1032.918 1178.163
 sum_up_and_integrate               343  8.0   10.450   11.314 1116.252 1117.228
 integrate_v_rspace                 343  9.0    0.026    0.041 1105.801 1106.770
 pw_transfer                       4484  8.9    0.857    0.930 1013.536 1034.313
 fft_wrap_pw1pw2                   3798  9.9    0.099    0.112  994.216 1015.039
 fft_wrap_pw1pw2_150               1725 10.2   73.490   78.536  902.414  931.536
 rs_pw_transfer                    2769  9.5    0.089    0.110  700.214  846.328
 grid_collocate_task_list           348  7.0  253.429  774.335  253.429  774.335
 grid_integrate_task_list           343 10.0  231.248  764.754  231.248  764.754
 gspace_mixing                      338  5.0    3.411    3.466  759.128  759.335
 mp_alltoall_d11v                  4837  9.3  572.578  718.578  572.578  718.578
 fft3d_ps                          3798 11.9  377.108  392.099  698.193  715.745
 mp_waitany                       11096 11.5  566.253  713.970  566.253  713.970
 rs_pw_transfer_RS2PW_150           353  9.0   14.724   19.254  447.879  706.854
 rs_gather_matrices                 343 10.0    0.659    0.759  551.085  697.221
 broyden_mixing                     338  6.0  516.248  538.684  566.305  575.800
 rs_pw_transfer_RS2PW_50            348  9.0    5.163    6.464  125.892  460.674
 qs_vxc_create                      343  8.0    0.020    0.035  355.385  363.922
 xc_vxc_pw_create                   343  9.0    8.932   11.438  355.365  363.904
 potential_pw2rs                    343 10.0    0.507    0.563  323.442  324.461
 xc_rho_set_and_dset_create         343 10.0   12.099   14.752  256.993  281.446
 xc_functional_eval                 343 11.0    0.013    0.026  179.326  202.935
 pbe_lda_eval                       343 12.0  179.313  202.924  179.313  202.924
 x_to_yz                           2058 13.2  112.869  115.597  182.683  190.128
 -------------------------------------------------------------------------------

 The number of warnings for this run is : 6
 
 -------------------------------------------------------------------------------
  **** **** ******  **  PROGRAM ENDED AT                 2025-07-09 17:21:03.935
 ***** ** ***  *** **   PROGRAM RAN ON                                sebnode130
 **    ****   ******    PROGRAM RAN BY                                    luehrs
 ***** **    ** ** **   PROGRAM PROCESS ID                               1115998
  **** **  *******  **  PROGRAM STOPPED IN /home/luehrs/PhD/Sodium_batteries/Sod
                                           ium-graphene-curvature/Curved_surface
                                           _convex/Zig-Zag2
