 DBCSR| CPU Multiplication driver                                           BLAS (U)
 DBCSR| Multrec recursion limit                                              512 (U)
 DBCSR| Multiplication stack size                                           1000 (D)
 DBCSR| Maximum elements for images                                    UNLIMITED (U)
 DBCSR| Multiplicative factor virtual images                                   1 (U)
 DBCSR| Use multiplication densification                                       T (D)
 DBCSR| Multiplication size stacks                                             3 (U)
 DBCSR| Use memory pool for CPU allocation                                     F (U)
 DBCSR| Number of 3D layers                                               SINGLE (U)
 DBCSR| Use MPI memory allocation                                              F (U)
 DBCSR| Use RMA algorithm                                                      F (U)
 DBCSR| Use Communication thread                                               T (U)
 DBCSR| Communication thread load                                             87 (D)
 DBCSR| MPI: My process id                                                     0
 DBCSR| MPI: Number of processes                                              16
 DBCSR| OMP: Current number of threads                                         1
 DBCSR| OMP: Max number of threads                                             1
 DBCSR| Split modifier for TAS multiplication algorithm                  1.0E+00 (U)


  **** **** ******  **  PROGRAM STARTED AT               2025-02-27 16:20:44.659
 ***** ** ***  *** **   PROGRAM STARTED ON                            sebnode127
 **    ****   ******    PROGRAM STARTED BY                                luehrs
 ***** **    ** ** **   PROGRAM PROCESS ID                                953191
  **** **  *******  **  PROGRAM STARTED IN /home/luehrs/PhD/Sodium_batteries/Sod
                                           ium-graphene-curvature/Curved_surface
                                           /Zig-Zag2

 CP2K| version string:                                       CP2K version 2023.1
 CP2K| source code revision number:                                  git:b888bd8
 CP2K| cp2kflags: omp libint fftw3 libxc elpa parallel scalapack spglib         
 CP2K| is freely available from                            https://www.cp2k.org/
 CP2K| Program compiled at                          Tue Jan 10 19:52:03 UTC 2023
 CP2K| Program compiled on                                            x86-ubc-01
 CP2K| Program compiled for                                Linux-x86_64-gfortran
 CP2K| Data directory path                                       /usr/share/cp2k
 CP2K| Input file name                                            input.BSSE.inp

 GLOBAL| Force Environment number                                              1
 GLOBAL| Basis set file name                                      ./BASIS_MOLOPT
 GLOBAL| Potential file name                                    ./GTH_POTENTIALS
 GLOBAL| MM Potential file name                                     MM_POTENTIAL
 GLOBAL| Coordinate file name                           coords_sur_2_relaxed.xyz
 GLOBAL| Method name                                                        CP2K
 GLOBAL| Project name                                            curv_sur_2_BSSE
 GLOBAL| Run type                                                           BSSE
 GLOBAL| FFT library                                                       FFTW3
 GLOBAL| Diagonalization library                                            ELPA
 GLOBAL| DGEMM library                                                      BLAS
 GLOBAL| Minimum number of eigenvectors for ELPA usage                        16
 GLOBAL| Orthonormality check for eigenvectors                          DISABLED
 GLOBAL| Matrix multiplication library                                 ScaLAPACK
 GLOBAL| All-to-all communication in single precision                          F
 GLOBAL| FFTs using library dependent lengths                                  F
 GLOBAL| Grid backend                                                       AUTO
 GLOBAL| Global print level                                                  LOW
 GLOBAL| MPI I/O enabled                                                       T
 GLOBAL| Total number of message passing processes                            16
 GLOBAL| Number of threads for this process                                    1
 GLOBAL| This output is from process                                           0
 GLOBAL| Stack size for threads created by OpenMP (OMP_STACKSIZE)        default
 GLOBAL| CPU model name                          AMD EPYC 7502 32-Core Processor

 MEMORY| system memory details [Kb]
 MEMORY|                        rank 0           min           max       average
 MEMORY| MemTotal            131834288     131834288     131834288     131834288
 MEMORY| MemFree              60043648      60043648      60043648      60043648
 MEMORY| Buffers                425000        425000        425000        425000
 MEMORY| Cached               26147260      26147256      26147260      26147256
 MEMORY| Slab                  1695452       1695452       1695452       1695452
 MEMORY| SReclaimable          1080012       1080012       1080012       1080012
 MEMORY| MemLikelyFree        87695920      87695916      87695920      87695916


 GENERATE|  Preliminary Number of Bonds generated:                             0
 GENERATE|  Achieved consistency in connectivity generation.

 *******************************************************************************
 *******************************************************************************
 **                                                                           **
 **     #####                         ##              ##                      **
 **    ##   ##            ##          ##              ##                      **
 **   ##     ##                       ##            ######                    **
 **   ##     ##  ##   ##  ##   #####  ##  ##   ####   ##    #####    #####    **
 **   ##     ##  ##   ##  ##  ##      ## ##   ##      ##   ##   ##  ##   ##   **
 **   ##  ## ##  ##   ##  ##  ##      ####     ###    ##   ######   ######    **
 **    ##  ###   ##   ##  ##  ##      ## ##      ##   ##   ##       ##        **
 **     #######   #####   ##   #####  ##  ##  ####    ##    #####   ##        **
 **           ##                                                    ##        **
 **                                                                           **
 **                                                ... make the atoms dance   **
 **                                                                           **
 **            Copyright (C) by CP2K developers group (2000-2022)             **
 **                      J. Chem. Phys. 152, 194103 (2020)                    **
 **                                                                           **
 *******************************************************************************


 TOTAL NUMBERS AND MAXIMUM NUMBERS

  Total number of            - Atomic kinds:                                   2
                             - Atoms:                                        225
                             - Shell sets:                                   225
                             - Shells:                                      1125
                             - Primitive Cartesian functions:               1127
                             - Cartesian basis functions:                   3145
                             - Spherical basis functions:                   2921

  Maximum angular momentum of- Orbital basis functions:                        2
                             - Local part of the GTH pseudopotential:          2
                             - Non-local part of the GTH pseudopotential:      1


 SCF PARAMETERS         Density guess:                                    ATOMIC
                        --------------------------------------------------------
                        max_scf:                                             300
                        max_scf_history:                                       0
                        max_diis:                                              4
                        --------------------------------------------------------
                        eps_scf:                                        3.00E-07
                        eps_scf_history:                                0.00E+00
                        eps_diis:                                       1.00E-01
                        eps_eigval:                                     1.00E-05
                        --------------------------------------------------------
                        level_shift [a.u.]:                             0.000000
                        added MOs                                       100    0
                        --------------------------------------------------------
                        Mixing method:                            BROYDEN_MIXING
                                                charge density mixing in g-space
                        --------------------------------------------------------
                        Smear method:                                FERMI_DIRAC
                        Electronic temperature [K]:                        300.0
                        Electronic temperature [a.u.]:                  9.50E-04
                        Accuracy threshold:                             1.00E-10
                        --------------------------------------------------------
                        Outer loop SCF in use 
                        No variables optimised in outer loop
                        eps_scf                                         1.00E-06
                        max_scf                                              300
                        DIIS optimization
                        DIIS buffer length                                     3
                        step_size                                       5.00E-01

 -------------------------------------------------------------------------------
 -                                                                             -
 -  BSSE CALCULATION         FRAGMENT CONF: 10        FRAGMENT SUBCONF: 10     -
 -                           CHARGE =     0           MULTIPLICITY =     0     -
 -                                                                             -
 -                 ATOM INDEX                              ATOM NAME           -
 -                 ----------                              ---------           -
 -                      1                                   C                  -
 -                      2                                   C                  -
 -                      3                                   C                  -
 -                      4                                   C                  -
 -                      5                                   C                  -
 -                      6                                   C                  -
 -                      7                                   C                  -
 -                      8                                   C                  -
 -                      9                                   C                  -
 -                     10                                   C                  -
 -                     11                                   C                  -
 -                     12                                   C                  -
 -                     13                                   C                  -
 -                     14                                   C                  -
 -                     15                                   C                  -
 -                     16                                   C                  -
 -                     17                                   C                  -
 -                     18                                   C                  -
 -                     19                                   C                  -
 -                     20                                   C                  -
 -                     21                                   C                  -
 -                     22                                   C                  -
 -                     23                                   C                  -
 -                     24                                   C                  -
 -                     25                                   C                  -
 -                     26                                   C                  -
 -                     27                                   C                  -
 -                     28                                   C                  -
 -                     29                                   C                  -
 -                     30                                   C                  -
 -                     31                                   C                  -
 -                     32                                   C                  -
 -                     33                                   C                  -
 -                     34                                   C                  -
 -                     35                                   C                  -
 -                     36                                   C                  -
 -                     37                                   C                  -
 -                     38                                   C                  -
 -                     39                                   C                  -
 -                     40                                   C                  -
 -                     41                                   C                  -
 -                     42                                   C                  -
 -                     43                                   C                  -
 -                     44                                   C                  -
 -                     45                                   C                  -
 -                     46                                   C                  -
 -                     47                                   C                  -
 -                     48                                   C                  -
 -                     49                                   C                  -
 -                     50                                   C                  -
 -                     51                                   C                  -
 -                     52                                   C                  -
 -                     53                                   C                  -
 -                     54                                   C                  -
 -                     55                                   C                  -
 -                     56                                   C                  -
 -                     57                                   C                  -
 -                     58                                   C                  -
 -                     59                                   C                  -
 -                     60                                   C                  -
 -                     61                                   C                  -
 -                     62                                   C                  -
 -                     63                                   C                  -
 -                     64                                   C                  -
 -                     65                                   C                  -
 -                     66                                   C                  -
 -                     67                                   C                  -
 -                     68                                   C                  -
 -                     69                                   C                  -
 -                     70                                   C                  -
 -                     71                                   C                  -
 -                     72                                   C                  -
 -                     73                                   C                  -
 -                     74                                   C                  -
 -                     75                                   C                  -
 -                     76                                   C                  -
 -                     77                                   C                  -
 -                     78                                   C                  -
 -                     79                                   C                  -
 -                     80                                   C                  -
 -                     81                                   C                  -
 -                     82                                   C                  -
 -                     83                                   C                  -
 -                     84                                   C                  -
 -                     85                                   C                  -
 -                     86                                   C                  -
 -                     87                                   C                  -
 -                     88                                   C                  -
 -                     89                                   C                  -
 -                     90                                   C                  -
 -                     91                                   C                  -
 -                     92                                   C                  -
 -                     93                                   C                  -
 -                     94                                   C                  -
 -                     95                                   C                  -
 -                     96                                   C                  -
 -                     97                                   C                  -
 -                     98                                   C                  -
 -                     99                                   C                  -
 -                    100                                   C                  -
 -                    101                                   C                  -
 -                    102                                   C                  -
 -                    103                                   C                  -
 -                    104                                   C                  -
 -                    105                                   C                  -
 -                    106                                   C                  -
 -                    107                                   C                  -
 -                    108                                   C                  -
 -                    109                                   C                  -
 -                    110                                   C                  -
 -                    111                                   C                  -
 -                    112                                   C                  -
 -                    113                                   C                  -
 -                    114                                   C                  -
 -                    115                                   C                  -
 -                    116                                   C                  -
 -                    117                                   C                  -
 -                    118                                   C                  -
 -                    119                                   C                  -
 -                    120                                   C                  -
 -                    121                                   C                  -
 -                    122                                   C                  -
 -                    123                                   C                  -
 -                    124                                   C                  -
 -                    125                                   C                  -
 -                    126                                   C                  -
 -                    127                                   C                  -
 -                    128                                   C                  -
 -                    129                                   C                  -
 -                    130                                   C                  -
 -                    131                                   C                  -
 -                    132                                   C                  -
 -                    133                                   C                  -
 -                    134                                   C                  -
 -                    135                                   C                  -
 -                    136                                   C                  -
 -                    137                                   C                  -
 -                    138                                   C                  -
 -                    139                                   C                  -
 -                    140                                   C                  -
 -                    141                                   C                  -
 -                    142                                   C                  -
 -                    143                                   C                  -
 -                    144                                   C                  -
 -                    145                                   C                  -
 -                    146                                   C                  -
 -                    147                                   C                  -
 -                    148                                   C                  -
 -                    149                                   C                  -
 -                    150                                   C                  -
 -                    151                                   C                  -
 -                    152                                   C                  -
 -                    153                                   C                  -
 -                    154                                   C                  -
 -                    155                                   C                  -
 -                    156                                   C                  -
 -                    157                                   C                  -
 -                    158                                   C                  -
 -                    159                                   C                  -
 -                    160                                   C                  -
 -                    161                                   C                  -
 -                    162                                   C                  -
 -                    163                                   C                  -
 -                    164                                   C                  -
 -                    165                                   C                  -
 -                    166                                   C                  -
 -                    167                                   C                  -
 -                    168                                   C                  -
 -                    169                                   C                  -
 -                    170                                   C                  -
 -                    171                                   C                  -
 -                    172                                   C                  -
 -                    173                                   C                  -
 -                    174                                   C                  -
 -                    175                                   C                  -
 -                    176                                   C                  -
 -                    177                                   C                  -
 -                    178                                   C                  -
 -                    179                                   C                  -
 -                    180                                   C                  -
 -                    181                                   C                  -
 -                    182                                   C                  -
 -                    183                                   C                  -
 -                    184                                   C                  -
 -                    185                                   C                  -
 -                    186                                   C                  -
 -                    187                                   C                  -
 -                    188                                   C                  -
 -                    189                                   C                  -
 -                    190                                   C                  -
 -                    191                                   C                  -
 -                    192                                   C                  -
 -                    193                                   C                  -
 -                    194                                   C                  -
 -                    195                                   C                  -
 -                    196                                   C                  -
 -                    197                                   C                  -
 -                    198                                   C                  -
 -                    199                                   C                  -
 -                    200                                   C                  -
 -                    201                                   C                  -
 -                    202                                   C                  -
 -                    203                                   C                  -
 -                    204                                   C                  -
 -                    205                                   C                  -
 -                    206                                   C                  -
 -                    207                                   C                  -
 -                    208                                   C                  -
 -                    209                                   C                  -
 -                    210                                   C                  -
 -                    211                                   C                  -
 -                    212                                   C                  -
 -                    213                                   C                  -
 -                    214                                   C                  -
 -                    215                                   C                  -
 -                    216                                   C                  -
 -                    217                                   C                  -
 -                    218                                   C                  -
 -                    219                                   C                  -
 -                    220                                   C                  -
 -                    221                                   C                  -
 -                    222                                   C                  -
 -                    223                                   C                  -
 -                    224                                   C                  -
 -------------------------------------------------------------------------------

 *******************************************************************************
 *******************************************************************************
 **                                                                           **
 **     #####                         ##              ##                      **
 **    ##   ##            ##          ##              ##                      **
 **   ##     ##                       ##            ######                    **
 **   ##     ##  ##   ##  ##   #####  ##  ##   ####   ##    #####    #####    **
 **   ##     ##  ##   ##  ##  ##      ## ##   ##      ##   ##   ##  ##   ##   **
 **   ##  ## ##  ##   ##  ##  ##      ####     ###    ##   ######   ######    **
 **    ##  ###   ##   ##  ##  ##      ## ##      ##   ##   ##       ##        **
 **     #######   #####   ##   #####  ##  ##  ####    ##    #####   ##        **
 **           ##                                                    ##        **
 **                                                                           **
 **                                                ... make the atoms dance   **
 **                                                                           **
 **            Copyright (C) by CP2K developers group (2000-2022)             **
 **                      J. Chem. Phys. 152, 194103 (2020)                    **
 **                                                                           **
 *******************************************************************************


 TOTAL NUMBERS AND MAXIMUM NUMBERS

  Total number of            - Atomic kinds:                                   1
                             - Atoms:                                        224
                             - Shell sets:                                   224
                             - Shells:                                      1120
                             - Primitive Cartesian functions:               1120
                             - Cartesian basis functions:                   3136
                             - Spherical basis functions:                   2912

  Maximum angular momentum of- Orbital basis functions:                        2
                             - Local part of the GTH pseudopotential:          2
                             - Non-local part of the GTH pseudopotential:      0


 SCF PARAMETERS         Density guess:                                    ATOMIC
                        --------------------------------------------------------
                        max_scf:                                             300
                        max_scf_history:                                       0
                        max_diis:                                              4
                        --------------------------------------------------------
                        eps_scf:                                        3.00E-07
                        eps_scf_history:                                0.00E+00
                        eps_diis:                                       1.00E-01
                        eps_eigval:                                     1.00E-05
                        --------------------------------------------------------
                        level_shift [a.u.]:                             0.000000
                        added MOs                                       100    0
                        --------------------------------------------------------
                        Mixing method:                            BROYDEN_MIXING
                                                charge density mixing in g-space
                        --------------------------------------------------------
                        Smear method:                                FERMI_DIRAC
                        Electronic temperature [K]:                        300.0
                        Electronic temperature [a.u.]:                  9.50E-04
                        Accuracy threshold:                             1.00E-10
                        --------------------------------------------------------
                        Outer loop SCF in use 
                        No variables optimised in outer loop
                        eps_scf                                         1.00E-06
                        max_scf                                              300
                        DIIS optimization
                        DIIS buffer length                                     3
                        step_size                                       5.00E-01

 Number of electrons:                                                        896
 Number of occupied orbitals:                                                448
 Number of molecular orbitals:                                               548

 Number of orbital functions:                                               2912
 Number of independent orbital functions:                                   2912

 Extrapolation method: initial_guess


 SCF WAVEFUNCTION OPTIMIZATION

  Step     Update method      Time    Convergence         Total energy    Change
  ------------------------------------------------------------------------------
     1 NoMix/Diag. 0.10E+00   15.4     0.92855114     -1265.9121593170 -1.27E+03
     2 Broy./Diag. 0.10E+00   19.9     0.26359742     -1214.9946253192  5.09E+01
     3 Broy./Diag. 0.10E+00   44.1     0.05096028     -1222.9896793010 -8.00E+00
     4 Broy./Diag. 0.10E+00   94.8     0.14876035     -1255.9815089556 -3.30E+01
     5 Broy./Diag. 0.10E+00  174.2     0.12768495     -1269.1463072012 -1.32E+01
     6 Broy./Diag. 0.10E+00  183.5     0.08359928     -1270.0244906654 -8.78E-01
     7 Broy./Diag. 0.10E+00  201.2     0.03847276     -1270.7394853252 -7.15E-01
     8 Broy./Diag. 0.10E+00  196.3     0.01198564     -1271.6819603260 -9.42E-01
     9 Broy./Diag. 0.10E+00  189.6     0.00957597     -1272.1601729733 -4.78E-01
    10 Broy./Diag. 0.10E+00  179.9     0.01314543     -1272.5780135346 -4.18E-01
    11 Broy./Diag. 0.10E+00  171.5     0.00493302     -1272.7193181844 -1.41E-01
    12 Broy./Diag. 0.10E+00  169.5     0.00268577     -1273.0271956956 -3.08E-01
    13 Broy./Diag. 0.10E+00  166.7     0.00263463     -1273.2837986134 -2.57E-01
    14 Broy./Diag. 0.10E+00  152.6     0.00419732     -1273.4127999922 -1.29E-01
    15 Broy./Diag. 0.10E+00  175.4     0.00080185     -1273.4914809819 -7.87E-02
    16 Broy./Diag. 0.10E+00  162.7     0.00112930     -1273.4707109507  2.08E-02
    17 Broy./Diag. 0.10E+00  156.9     0.00233761     -1273.4555839786  1.51E-02
    18 Broy./Diag. 0.10E+00  166.1     0.00194279     -1273.5099943536 -5.44E-02
    19 Broy./Diag. 0.10E+00  178.6     0.00209133     -1273.5338882392 -2.39E-02
    20 Broy./Diag. 0.10E+00  157.9     0.00134366     -1273.5544980328 -2.06E-02
    21 Broy./Diag. 0.10E+00  154.0     0.00047129     -1273.5869961959 -3.25E-02
    22 Broy./Diag. 0.10E+00  172.4     0.00019771     -1273.6195103200 -3.25E-02
    23 Broy./Diag. 0.10E+00  156.2     0.00014060     -1273.6458137838 -2.63E-02
    24 Broy./Diag. 0.10E+00  155.8     0.00033124     -1273.6471084954 -1.29E-03
    25 Broy./Diag. 0.10E+00  161.2     0.00019573     -1273.6427937975  4.31E-03
    26 Broy./Diag. 0.10E+00  202.5     0.00020272     -1273.6368986807  5.90E-03
    27 Broy./Diag. 0.10E+00  176.1     0.00028741     -1273.6284236983  8.47E-03
    28 Broy./Diag. 0.10E+00  178.7     0.00033089     -1273.6272934629  1.13E-03
    29 Broy./Diag. 0.10E+00  161.7     0.00055854     -1273.6366635973 -9.37E-03
    30 Broy./Diag. 0.10E+00  183.5     0.00048188     -1273.6435977444 -6.93E-03
    31 Broy./Diag. 0.10E+00  180.1     0.00015325     -1273.6463051775 -2.71E-03
    32 Broy./Diag. 0.10E+00  145.6     0.00017303     -1273.6449244047  1.38E-03
    33 Broy./Diag. 0.10E+00  168.1     0.00014330     -1273.6435634387  1.36E-03
    34 Broy./Diag. 0.10E+00  189.7     0.00009674     -1273.6415868684  1.98E-03
    35 Broy./Diag. 0.10E+00  195.0     0.00014743     -1273.6439586183 -2.37E-03
    36 Broy./Diag. 0.10E+00  176.7     0.00020370     -1273.6459831582 -2.02E-03
    37 Broy./Diag. 0.10E+00  205.3     0.00009722     -1273.6488357099 -2.85E-03
    38 Broy./Diag. 0.10E+00  186.8     0.00002377     -1273.6511731862 -2.34E-03
    39 Broy./Diag. 0.10E+00  208.6     0.00009044     -1273.6525682280 -1.40E-03
    40 Broy./Diag. 0.10E+00  183.4     0.00010735     -1273.6544350585 -1.87E-03
    41 Broy./Diag. 0.10E+00  199.7     0.00004590     -1273.6554015567 -9.66E-04
    42 Broy./Diag. 0.10E+00  184.3     0.00005335     -1273.6569120628 -1.51E-03
    43 Broy./Diag. 0.10E+00  201.2     0.00004781     -1273.6583973213 -1.49E-03
    44 Broy./Diag. 0.10E+00  202.9     0.00001419     -1273.6588563239 -4.59E-04
    45 Broy./Diag. 0.10E+00  199.0     0.00001349     -1273.6587209794  1.35E-04
    46 Broy./Diag. 0.10E+00  196.9     0.00004057     -1273.6581500713  5.71E-04
    47 Broy./Diag. 0.10E+00  183.8     0.00003752     -1273.6573857175  7.64E-04
    48 Broy./Diag. 0.10E+00  162.1     0.00001692     -1273.6568065292  5.79E-04
    49 Broy./Diag. 0.10E+00  194.6     0.00001059     -1273.6565780075  2.29E-04
    50 Broy./Diag. 0.10E+00  170.9     0.00001318     -1273.6564513041  1.27E-04
    51 Broy./Diag. 0.10E+00  191.4     0.00001933     -1273.6563118595  1.39E-04
    52 Broy./Diag. 0.10E+00  172.5     0.00001586     -1273.6563322507 -2.04E-05
    53 Broy./Diag. 0.10E+00  168.8     0.00001590     -1273.6564232868 -9.10E-05
    54 Broy./Diag. 0.10E+00  147.1     0.00001031     -1273.6567227652 -2.99E-04
    55 Broy./Diag. 0.10E+00  169.0     0.00000458     -1273.6570550338 -3.32E-04
    56 Broy./Diag. 0.10E+00  170.1     0.00000833     -1273.6573083452 -2.53E-04
    57 Broy./Diag. 0.10E+00  156.5     0.00000873     -1273.6575237164 -2.15E-04
    58 Broy./Diag. 0.10E+00  165.8     0.00000484     -1273.6576601005 -1.36E-04
    59 Broy./Diag. 0.10E+00  141.9     0.00000201     -1273.6576960670 -3.60E-05
    60 Broy./Diag. 0.10E+00  187.2     0.00000407     -1273.6576918435  4.22E-06
    61 Broy./Diag. 0.10E+00  176.6     0.00000453     -1273.6576470758  4.48E-05
    62 Broy./Diag. 0.10E+00  182.3     0.00000300     -1273.6576183995  2.87E-05
    63 Broy./Diag. 0.10E+00  133.8     0.00000238     -1273.6575978393  2.06E-05
    64 Broy./Diag. 0.10E+00  148.3     0.00000200     -1273.6575509466  4.69E-05
    65 Broy./Diag. 0.10E+00  142.1     0.00000102     -1273.6575146247  3.63E-05
    66 Broy./Diag. 0.10E+00  198.5     0.00000210     -1273.6574806647  3.40E-05
    67 Broy./Diag. 0.10E+00  172.5     0.00000259     -1273.6574566839  2.40E-05
    68 Broy./Diag. 0.10E+00  185.5     0.00000212     -1273.6574611365 -4.45E-06
    69 Broy./Diag. 0.10E+00  176.9     0.00000155     -1273.6575033562 -4.22E-05
    70 Broy./Diag. 0.10E+00  178.5     0.00000156     -1273.6575427982 -3.94E-05
    71 Broy./Diag. 0.10E+00  184.2     0.00000127     -1273.6575676944 -2.49E-05
    72 Broy./Diag. 0.10E+00  162.4     0.00000073     -1273.6575829749 -1.53E-05
    73 Broy./Diag. 0.10E+00  172.5     0.00000085     -1273.6575853230 -2.35E-06
    74 Broy./Diag. 0.10E+00  177.7     0.00000063     -1273.6575947149 -9.39E-06
    75 Broy./Diag. 0.10E+00  154.9     0.00000025     -1273.6575994268 -4.71E-06

  *** SCF run converged in    75 steps ***


  Electronic density on regular grids:       -896.0000000000        0.0000000000
  Core density on regular grids:              895.9999999992       -0.0000000008
  Total charge density on r-space grids:       -0.0000000007
  Total charge density g-space grids:          -0.0000000007

  Overlap energy of the core charge distribution:               0.00005632564276
  Self energy of the core charge distribution:              -2987.04177559540722
  Core Hamiltonian energy:                                    937.74498371287325
  Hartree energy:                                            1167.03334637293665
  Exchange-correlation energy:                               -391.12778182923921
  Dispersion energy:                                           -0.25986067328793
  Electronic entropic energy:                                  -0.00656773959893
  Fermi energy:                                                -0.15103835500878

  Total energy:                                             -1273.65759942676164

  outer SCF iter =    1 RMS gradient =   0.25E-06 energy =      -1273.6575994268
  outer SCF loop converged in   1 iterations or   75 steps


 *** WARNING in qs_loc_utils.F:1500 :: User requested the calculation of ***
 *** the localized wavefunction but the section LOCALIZE was not         ***
 *** specified. Localization will not be performed!                      ***


 -------------------------------------------------------------------------------
 -                                                                             -
 -  BSSE CALCULATION         FRAGMENT CONF: 01        FRAGMENT SUBCONF: 01     -
 -                           CHARGE =     0           MULTIPLICITY =     0     -
 -                                                                             -
 -                 ATOM INDEX                              ATOM NAME           -
 -                 ----------                              ---------           -
 -                    225                                   Na                 -
 -------------------------------------------------------------------------------

 *******************************************************************************
 *******************************************************************************
 **                                                                           **
 **     #####                         ##              ##                      **
 **    ##   ##            ##          ##              ##                      **
 **   ##     ##                       ##            ######                    **
 **   ##     ##  ##   ##  ##   #####  ##  ##   ####   ##    #####    #####    **
 **   ##     ##  ##   ##  ##  ##      ## ##   ##      ##   ##   ##  ##   ##   **
 **   ##  ## ##  ##   ##  ##  ##      ####     ###    ##   ######   ######    **
 **    ##  ###   ##   ##  ##  ##      ## ##      ##   ##   ##       ##        **
 **     #######   #####   ##   #####  ##  ##  ####    ##    #####   ##        **
 **           ##                                                    ##        **
 **                                                                           **
 **                                                ... make the atoms dance   **
 **                                                                           **
 **            Copyright (C) by CP2K developers group (2000-2022)             **
 **                      J. Chem. Phys. 152, 194103 (2020)                    **
 **                                                                           **
 *******************************************************************************

 *** WARNING in qs_environment.F:1486 :: More added MOs requested than     ***
 *** available. The full set of unoccupied MOs will be used. Use           ***
 *** 'ADDED_MOS -1' to always use all available MOs and to get rid of this ***
 *** warning.                                                              ***



 TOTAL NUMBERS AND MAXIMUM NUMBERS

  Total number of            - Atomic kinds:                                   1
                             - Atoms:                                          1
                             - Shell sets:                                     1
                             - Shells:                                         5
                             - Primitive Cartesian functions:                  7
                             - Cartesian basis functions:                      9
                             - Spherical basis functions:                      9

  Maximum angular momentum of- Orbital basis functions:                        1
                             - Local part of the GTH pseudopotential:          2
                             - Non-local part of the GTH pseudopotential:      1


 SCF PARAMETERS         Density guess:                                    ATOMIC
                        --------------------------------------------------------
                        max_scf:                                             300
                        max_scf_history:                                       0
                        max_diis:                                              4
                        --------------------------------------------------------
                        eps_scf:                                        3.00E-07
                        eps_scf_history:                                0.00E+00
                        eps_diis:                                       1.00E-01
                        eps_eigval:                                     1.00E-05
                        --------------------------------------------------------
                        level_shift [a.u.]:                             0.000000
                        added MOs                                         4    0
                        --------------------------------------------------------
                        Mixing method:                            BROYDEN_MIXING
                                                charge density mixing in g-space
                        --------------------------------------------------------
                        Smear method:                                FERMI_DIRAC
                        Electronic temperature [K]:                        300.0
                        Electronic temperature [a.u.]:                  9.50E-04
                        Accuracy threshold:                             1.00E-10
                        --------------------------------------------------------
                        Outer loop SCF in use 
                        No variables optimised in outer loop
                        eps_scf                                         1.00E-06
                        max_scf                                              300
                        DIIS optimization
                        DIIS buffer length                                     3
                        step_size                                       5.00E-01

 Number of electrons:                                                          9
 Number of occupied orbitals:                                                  5
 Number of molecular orbitals:                                                 9

 Number of orbital functions:                                                  9
 Number of independent orbital functions:                                      9

 Extrapolation method: initial_guess


 SCF WAVEFUNCTION OPTIMIZATION

  Step     Update method      Time    Convergence         Total energy    Change
  ------------------------------------------------------------------------------
     1 NoMix/Diag. 0.10E+00    8.4     0.02077865       -47.1632558572 -4.72E+01
     2 Broy./Diag. 0.10E+00   12.6     0.00009672       -47.1203860163  4.29E-02
     3 Broy./Diag. 0.10E+00   13.3     0.00099685       -47.1612560595 -4.09E-02
     4 Broy./Diag. 0.10E+00   12.6     0.00002400       -47.1689246429 -7.67E-03
     5 Broy./Diag. 0.10E+00   14.6     0.00025247       -47.1689612876 -3.66E-05
     6 Broy./Diag. 0.10E+00   14.6     0.00000809       -47.1690850867 -1.24E-04
     7 Broy./Diag. 0.10E+00   13.1     0.00014091       -47.1674036700  1.68E-03
     8 Broy./Diag. 0.10E+00   14.4     0.00001764       -47.1664561892  9.47E-04
     9 Broy./Diag. 0.10E+00   13.3     0.00018660       -47.1658023062  6.54E-04
    10 Broy./Diag. 0.10E+00   16.8     0.00000972       -47.1654164201  3.86E-04
    11 Broy./Diag. 0.10E+00   14.4     0.00009319       -47.1652118186  2.05E-04
    12 Broy./Diag. 0.10E+00   14.0     0.00000301       -47.1651494481  6.24E-05
    13 Broy./Diag. 0.10E+00   14.7     0.00000820       -47.1652459173 -9.65E-05
    14 Broy./Diag. 0.10E+00   14.4     0.00000082       -47.1652630807 -1.72E-05
    15 Broy./Diag. 0.10E+00   14.7     0.00001233       -47.1651016540  1.61E-04
    16 Broy./Diag. 0.10E+00   14.7     0.00000254       -47.1650726844  2.90E-05
    17 Broy./Diag. 0.10E+00   15.7     0.00000272       -47.1651096302 -3.69E-05
    18 Broy./Diag. 0.10E+00   13.6     0.00000203       -47.1651511586 -4.15E-05
    19 Broy./Diag. 0.10E+00   14.7     0.00000145       -47.1651693462 -1.82E-05
    20 Broy./Diag. 0.10E+00   17.3     0.00000263       -47.1651652967  4.05E-06
    21 Broy./Diag. 0.10E+00   14.7     0.00000264       -47.1651444422  2.09E-05
    22 Broy./Diag. 0.10E+00   15.9     0.00000453       -47.1651135473  3.09E-05
    23 Broy./Diag. 0.10E+00   14.3     0.00000313       -47.1650930492  2.05E-05
    24 Broy./Diag. 0.10E+00   13.7     0.00000121       -47.1650908779  2.17E-06
    25 Broy./Diag. 0.10E+00   13.5     0.00000028       -47.1650987759 -7.90E-06

  *** SCF run converged in    25 steps ***


  Electronic density on regular grids:         -9.0003206732       -0.0003206732
  Core density on regular grids:                9.0000000000       -0.0000000000
  Total charge density on r-space grids:       -0.0003206732
  Total charge density g-space grids:          -0.0003206732

  Overlap energy of the core charge distribution:               0.00000000000000
  Self energy of the core charge distribution:                -96.60649019442629
  Core Hamiltonian energy:                                     29.76189412226206
  Hartree energy:                                              26.72516489729388
  Exchange-correlation energy:                                 -7.04434992443875
  Dispersion energy:                                           -0.00000063510881
  Electronic entropic energy:                                  -0.00131704147593
  Fermi energy:                                                -0.09176734212376

  Total energy:                                               -47.16509877589382

  outer SCF iter =    1 RMS gradient =   0.28E-06 energy =        -47.1650987759
  outer SCF loop converged in   1 iterations or   25 steps


 *** WARNING in qs_loc_utils.F:1500 :: User requested the calculation of ***
 *** the localized wavefunction but the section LOCALIZE was not         ***
 *** specified. Localization will not be performed!                      ***


 -------------------------------------------------------------------------------
 -                                                                             -
 -  BSSE CALCULATION         FRAGMENT CONF: 11        FRAGMENT SUBCONF: 10     -
 -                           CHARGE =     0           MULTIPLICITY =     0     -
 -                                                                             -
 -                 ATOM INDEX                              ATOM NAME           -
 -                 ----------                              ---------           -
 -                      1                                   C                  -
 -                      2                                   C                  -
 -                      3                                   C                  -
 -                      4                                   C                  -
 -                      5                                   C                  -
 -                      6                                   C                  -
 -                      7                                   C                  -
 -                      8                                   C                  -
 -                      9                                   C                  -
 -                     10                                   C                  -
 -                     11                                   C                  -
 -                     12                                   C                  -
 -                     13                                   C                  -
 -                     14                                   C                  -
 -                     15                                   C                  -
 -                     16                                   C                  -
 -                     17                                   C                  -
 -                     18                                   C                  -
 -                     19                                   C                  -
 -                     20                                   C                  -
 -                     21                                   C                  -
 -                     22                                   C                  -
 -                     23                                   C                  -
 -                     24                                   C                  -
 -                     25                                   C                  -
 -                     26                                   C                  -
 -                     27                                   C                  -
 -                     28                                   C                  -
 -                     29                                   C                  -
 -                     30                                   C                  -
 -                     31                                   C                  -
 -                     32                                   C                  -
 -                     33                                   C                  -
 -                     34                                   C                  -
 -                     35                                   C                  -
 -                     36                                   C                  -
 -                     37                                   C                  -
 -                     38                                   C                  -
 -                     39                                   C                  -
 -                     40                                   C                  -
 -                     41                                   C                  -
 -                     42                                   C                  -
 -                     43                                   C                  -
 -                     44                                   C                  -
 -                     45                                   C                  -
 -                     46                                   C                  -
 -                     47                                   C                  -
 -                     48                                   C                  -
 -                     49                                   C                  -
 -                     50                                   C                  -
 -                     51                                   C                  -
 -                     52                                   C                  -
 -                     53                                   C                  -
 -                     54                                   C                  -
 -                     55                                   C                  -
 -                     56                                   C                  -
 -                     57                                   C                  -
 -                     58                                   C                  -
 -                     59                                   C                  -
 -                     60                                   C                  -
 -                     61                                   C                  -
 -                     62                                   C                  -
 -                     63                                   C                  -
 -                     64                                   C                  -
 -                     65                                   C                  -
 -                     66                                   C                  -
 -                     67                                   C                  -
 -                     68                                   C                  -
 -                     69                                   C                  -
 -                     70                                   C                  -
 -                     71                                   C                  -
 -                     72                                   C                  -
 -                     73                                   C                  -
 -                     74                                   C                  -
 -                     75                                   C                  -
 -                     76                                   C                  -
 -                     77                                   C                  -
 -                     78                                   C                  -
 -                     79                                   C                  -
 -                     80                                   C                  -
 -                     81                                   C                  -
 -                     82                                   C                  -
 -                     83                                   C                  -
 -                     84                                   C                  -
 -                     85                                   C                  -
 -                     86                                   C                  -
 -                     87                                   C                  -
 -                     88                                   C                  -
 -                     89                                   C                  -
 -                     90                                   C                  -
 -                     91                                   C                  -
 -                     92                                   C                  -
 -                     93                                   C                  -
 -                     94                                   C                  -
 -                     95                                   C                  -
 -                     96                                   C                  -
 -                     97                                   C                  -
 -                     98                                   C                  -
 -                     99                                   C                  -
 -                    100                                   C                  -
 -                    101                                   C                  -
 -                    102                                   C                  -
 -                    103                                   C                  -
 -                    104                                   C                  -
 -                    105                                   C                  -
 -                    106                                   C                  -
 -                    107                                   C                  -
 -                    108                                   C                  -
 -                    109                                   C                  -
 -                    110                                   C                  -
 -                    111                                   C                  -
 -                    112                                   C                  -
 -                    113                                   C                  -
 -                    114                                   C                  -
 -                    115                                   C                  -
 -                    116                                   C                  -
 -                    117                                   C                  -
 -                    118                                   C                  -
 -                    119                                   C                  -
 -                    120                                   C                  -
 -                    121                                   C                  -
 -                    122                                   C                  -
 -                    123                                   C                  -
 -                    124                                   C                  -
 -                    125                                   C                  -
 -                    126                                   C                  -
 -                    127                                   C                  -
 -                    128                                   C                  -
 -                    129                                   C                  -
 -                    130                                   C                  -
 -                    131                                   C                  -
 -                    132                                   C                  -
 -                    133                                   C                  -
 -                    134                                   C                  -
 -                    135                                   C                  -
 -                    136                                   C                  -
 -                    137                                   C                  -
 -                    138                                   C                  -
 -                    139                                   C                  -
 -                    140                                   C                  -
 -                    141                                   C                  -
 -                    142                                   C                  -
 -                    143                                   C                  -
 -                    144                                   C                  -
 -                    145                                   C                  -
 -                    146                                   C                  -
 -                    147                                   C                  -
 -                    148                                   C                  -
 -                    149                                   C                  -
 -                    150                                   C                  -
 -                    151                                   C                  -
 -                    152                                   C                  -
 -                    153                                   C                  -
 -                    154                                   C                  -
 -                    155                                   C                  -
 -                    156                                   C                  -
 -                    157                                   C                  -
 -                    158                                   C                  -
 -                    159                                   C                  -
 -                    160                                   C                  -
 -                    161                                   C                  -
 -                    162                                   C                  -
 -                    163                                   C                  -
 -                    164                                   C                  -
 -                    165                                   C                  -
 -                    166                                   C                  -
 -                    167                                   C                  -
 -                    168                                   C                  -
 -                    169                                   C                  -
 -                    170                                   C                  -
 -                    171                                   C                  -
 -                    172                                   C                  -
 -                    173                                   C                  -
 -                    174                                   C                  -
 -                    175                                   C                  -
 -                    176                                   C                  -
 -                    177                                   C                  -
 -                    178                                   C                  -
 -                    179                                   C                  -
 -                    180                                   C                  -
 -                    181                                   C                  -
 -                    182                                   C                  -
 -                    183                                   C                  -
 -                    184                                   C                  -
 -                    185                                   C                  -
 -                    186                                   C                  -
 -                    187                                   C                  -
 -                    188                                   C                  -
 -                    189                                   C                  -
 -                    190                                   C                  -
 -                    191                                   C                  -
 -                    192                                   C                  -
 -                    193                                   C                  -
 -                    194                                   C                  -
 -                    195                                   C                  -
 -                    196                                   C                  -
 -                    197                                   C                  -
 -                    198                                   C                  -
 -                    199                                   C                  -
 -                    200                                   C                  -
 -                    201                                   C                  -
 -                    202                                   C                  -
 -                    203                                   C                  -
 -                    204                                   C                  -
 -                    205                                   C                  -
 -                    206                                   C                  -
 -                    207                                   C                  -
 -                    208                                   C                  -
 -                    209                                   C                  -
 -                    210                                   C                  -
 -                    211                                   C                  -
 -                    212                                   C                  -
 -                    213                                   C                  -
 -                    214                                   C                  -
 -                    215                                   C                  -
 -                    216                                   C                  -
 -                    217                                   C                  -
 -                    218                                   C                  -
 -                    219                                   C                  -
 -                    220                                   C                  -
 -                    221                                   C                  -
 -                    222                                   C                  -
 -                    223                                   C                  -
 -                    224                                   C                  -
 -                    225                                   Na_ghost           -
 -------------------------------------------------------------------------------

 *******************************************************************************
 *******************************************************************************
 **                                                                           **
 **     #####                         ##              ##                      **
 **    ##   ##            ##          ##              ##                      **
 **   ##     ##                       ##            ######                    **
 **   ##     ##  ##   ##  ##   #####  ##  ##   ####   ##    #####    #####    **
 **   ##     ##  ##   ##  ##  ##      ## ##   ##      ##   ##   ##  ##   ##   **
 **   ##  ## ##  ##   ##  ##  ##      ####     ###    ##   ######   ######    **
 **    ##  ###   ##   ##  ##  ##      ## ##      ##   ##   ##       ##        **
 **     #######   #####   ##   #####  ##  ##  ####    ##    #####   ##        **
 **           ##                                                    ##        **
 **                                                                           **
 **                                                ... make the atoms dance   **
 **                                                                           **
 **            Copyright (C) by CP2K developers group (2000-2022)             **
 **                      J. Chem. Phys. 152, 194103 (2020)                    **
 **                                                                           **
 *******************************************************************************


 TOTAL NUMBERS AND MAXIMUM NUMBERS

  Total number of            - Atomic kinds:                                   2
                             - Atoms:                                        225
                             - Shell sets:                                   225
                             - Shells:                                      1125
                             - Primitive Cartesian functions:               1127
                             - Cartesian basis functions:                   3145
                             - Spherical basis functions:                   2921

  Maximum angular momentum of- Orbital basis functions:                        2
                             - Local part of the GTH pseudopotential:          2
                             - Non-local part of the GTH pseudopotential:      0


 SCF PARAMETERS         Density guess:                                    ATOMIC
                        --------------------------------------------------------
                        max_scf:                                             300
                        max_scf_history:                                       0
                        max_diis:                                              4
                        --------------------------------------------------------
                        eps_scf:                                        3.00E-07
                        eps_scf_history:                                0.00E+00
                        eps_diis:                                       1.00E-01
                        eps_eigval:                                     1.00E-05
                        --------------------------------------------------------
                        level_shift [a.u.]:                             0.000000
                        added MOs                                       100    0
                        --------------------------------------------------------
                        Mixing method:                            BROYDEN_MIXING
                                                charge density mixing in g-space
                        --------------------------------------------------------
                        Smear method:                                FERMI_DIRAC
                        Electronic temperature [K]:                        300.0
                        Electronic temperature [a.u.]:                  9.50E-04
                        Accuracy threshold:                             1.00E-10
                        --------------------------------------------------------
                        Outer loop SCF in use 
                        No variables optimised in outer loop
                        eps_scf                                         1.00E-06
                        max_scf                                              300
                        DIIS optimization
                        DIIS buffer length                                     3
                        step_size                                       5.00E-01

 Number of electrons:                                                        896
 Number of occupied orbitals:                                                448
 Number of molecular orbitals:                                               548

 Number of orbital functions:                                               2921
 Number of independent orbital functions:                                   2921

 Extrapolation method: initial_guess


 SCF WAVEFUNCTION OPTIMIZATION

  Step     Update method      Time    Convergence         Total energy    Change
  ------------------------------------------------------------------------------
     1 NoMix/Diag. 0.10E+00  125.4     0.92855153     -1265.9121593170 -1.27E+03
     2 Broy./Diag. 0.10E+00  143.3     0.26373363     -1214.9879356476  5.09E+01
     3 Broy./Diag. 0.10E+00  150.0     0.05239833     -1222.9782557461 -7.99E+00
     4 Broy./Diag. 0.10E+00  169.0     0.14759697     -1255.9705053519 -3.30E+01
     5 Broy./Diag. 0.10E+00  208.1     0.12627113     -1269.1468091708 -1.32E+01
     6 Broy./Diag. 0.10E+00  191.4     0.08413019     -1270.0263788459 -8.80E-01
     7 Broy./Diag. 0.10E+00  187.6     0.03985836     -1270.7400951376 -7.14E-01
     8 Broy./Diag. 0.10E+00  200.6     0.01114070     -1271.6817908818 -9.42E-01
     9 Broy./Diag. 0.10E+00  168.2     0.01174202     -1272.1592740679 -4.77E-01
    10 Broy./Diag. 0.10E+00  142.8     0.01297087     -1272.5782282934 -4.19E-01
    11 Broy./Diag. 0.10E+00  165.5     0.00515824     -1272.7179208065 -1.40E-01
    12 Broy./Diag. 0.10E+00  153.1     0.00276617     -1273.0119451955 -2.94E-01
    13 Broy./Diag. 0.10E+00  199.7     0.00315130     -1273.2754400300 -2.63E-01
    14 Broy./Diag. 0.10E+00  152.6     0.00534424     -1273.3646440693 -8.92E-02
    15 Broy./Diag. 0.10E+00  176.4     0.00573923     -1273.4185389065 -5.39E-02
    16 Broy./Diag. 0.10E+00  165.7     0.00405695     -1273.4641985342 -4.57E-02
    17 Broy./Diag. 0.10E+00  186.2     0.00123795     -1273.5108120480 -4.66E-02
    18 Broy./Diag. 0.10E+00  172.7     0.00099036     -1273.5573061281 -4.65E-02
    19 Broy./Diag. 0.10E+00  162.8     0.00089319     -1273.5897669998 -3.25E-02
    20 Broy./Diag. 0.10E+00  160.0     0.00032161     -1273.5830594386  6.71E-03
    21 Broy./Diag. 0.10E+00  188.2     0.00052010     -1273.5605489470  2.25E-02
    22 Broy./Diag. 0.10E+00  184.4     0.00040547     -1273.5817814217 -2.12E-02
    23 Broy./Diag. 0.10E+00  179.0     0.00029096     -1273.6040624798 -2.23E-02
    24 Broy./Diag. 0.10E+00  201.7     0.00066755     -1273.6237245901 -1.97E-02
    25 Broy./Diag. 0.10E+00  192.4     0.00060948     -1273.6397970234 -1.61E-02
    26 Broy./Diag. 0.10E+00  180.0     0.00051347     -1273.6378497482  1.95E-03
    27 Broy./Diag. 0.10E+00  170.8     0.00044460     -1273.6367677320  1.08E-03
    28 Broy./Diag. 0.10E+00  190.3     0.00038579     -1273.6363468874  4.21E-04
    29 Broy./Diag. 0.10E+00  184.6     0.00061793     -1273.6382392790 -1.89E-03
    30 Broy./Diag. 0.10E+00  165.2     0.00045029     -1273.6424137485 -4.17E-03
    31 Broy./Diag. 0.10E+00  170.4     0.00012216     -1273.6461095305 -3.70E-03
    32 Broy./Diag. 0.10E+00  202.4     0.00007697     -1273.6497613095 -3.65E-03
    33 Broy./Diag. 0.10E+00  192.0     0.00014677     -1273.6546572354 -4.90E-03
    34 Broy./Diag. 0.10E+00  222.4     0.00009713     -1273.6575904089 -2.93E-03
    35 Broy./Diag. 0.10E+00  206.2     0.00009235     -1273.6599631592 -2.37E-03
    36 Broy./Diag. 0.10E+00  186.5     0.00007544     -1273.6604131232 -4.50E-04
    37 Broy./Diag. 0.10E+00  204.6     0.00015749     -1273.6598519952  5.61E-04
    38 Broy./Diag. 0.10E+00  178.9     0.00015414     -1273.6581649808  1.69E-03
    39 Broy./Diag. 0.10E+00  184.0     0.00014734     -1273.6575736172  5.91E-04
    40 Broy./Diag. 0.10E+00  176.6     0.00013226     -1273.6580368753 -4.63E-04
    41 Broy./Diag. 0.10E+00  196.1     0.00010209     -1273.6589381801 -9.01E-04
    42 Broy./Diag. 0.10E+00  178.9     0.00007065     -1273.6599602568 -1.02E-03
    43 Broy./Diag. 0.10E+00  169.1     0.00007508     -1273.6610080933 -1.05E-03
    44 Broy./Diag. 0.10E+00  182.8     0.00003874     -1273.6618760101 -8.68E-04
    45 Broy./Diag. 0.10E+00  181.0     0.00003590     -1273.6620988922 -2.23E-04
    46 Broy./Diag. 0.10E+00  205.9     0.00003523     -1273.6623494866 -2.51E-04
    47 Broy./Diag. 0.10E+00  203.6     0.00007746     -1273.6619290366  4.20E-04
    48 Broy./Diag. 0.10E+00  209.5     0.00007022     -1273.6615804223  3.49E-04
    49 Broy./Diag. 0.10E+00  211.6     0.00005347     -1273.6609037350  6.77E-04
    50 Broy./Diag. 0.10E+00  196.2     0.00003572     -1273.6600996152  8.04E-04
    51 Broy./Diag. 0.10E+00  198.4     0.00005175     -1273.6592773894  8.22E-04
    52 Broy./Diag. 0.10E+00  235.0     0.00002983     -1273.6586670263  6.10E-04
[...]
   114 Broy./Diag. 0.10E+00   20.4     0.00000062     -1320.8676747866  1.23E-09
   115 Broy./Diag. 0.10E+00   20.3     0.00000149     -1320.8676757998 -1.01E-06
   116 Broy./Diag. 0.10E+00   20.3     0.00000145     -1320.8676772882 -1.49E-06
   117 Broy./Diag. 0.10E+00   20.5     0.00000252     -1320.8676803977 -3.11E-06
   118 Broy./Diag. 0.10E+00   20.3     0.00000142     -1320.8676821659 -1.77E-06
   119 Broy./Diag. 0.10E+00   15.2     0.00000100     -1320.8676830638 -8.98E-07
   120 Broy./Diag. 0.10E+00   12.0     0.00000106     -1320.8676835849 -5.21E-07
   121 Broy./Diag. 0.10E+00   12.1     0.00000080     -1320.8676836919 -1.07E-07
   122 Broy./Diag. 0.10E+00   12.0     0.00000079     -1320.8676835446  1.47E-07
   123 Broy./Diag. 0.10E+00   12.0     0.00000133     -1320.8676829588  5.86E-07
   124 Broy./Diag. 0.10E+00   12.0     0.00000037     -1320.8676821829  7.76E-07
   125 Broy./Diag. 0.10E+00   12.1     0.00000116     -1320.8676814476  7.35E-07
   126 Broy./Diag. 0.10E+00   12.0     0.00000090     -1320.8676804809  9.67E-07
   127 Broy./Diag. 0.10E+00   12.0     0.00000081     -1320.8676795861  8.95E-07
   128 Broy./Diag. 0.10E+00   12.0     0.00000029     -1320.8676792125  3.74E-07

  *** SCF run converged in   128 steps ***


  Electronic density on regular grids:       -905.0003221970       -0.0003221970
  Core density on regular grids:              904.9999999992       -0.0000000008
  Total charge density on r-space grids:       -0.0003221978
  Total charge density g-space grids:          -0.0003221978

  Overlap energy of the core charge distribution:               0.00005632564276
  Self energy of the core charge distribution:              -3083.64826578983366
  Core Hamiltonian energy:                                    967.85753725543918
  Hartree energy:                                            1193.60877620084034
  Exchange-correlation energy:                               -398.41409675163084
  Dispersion energy:                                           -0.26427373207572
  Electronic entropic energy:                                  -0.00741272138912
  Fermi energy:                                                -0.14194065050099

  Total energy:                                             -1320.86767921250657

  outer SCF iter =    1 RMS gradient =   0.29E-06 energy =      -1320.8676792125
  outer SCF loop converged in   1 iterations or  128 steps


 *** WARNING in qs_loc_utils.F:1500 :: User requested the calculation of ***
 *** the localized wavefunction but the section LOCALIZE was not         ***
 *** specified. Localization will not be performed!                      ***


 -------------------------------------------------------------------------------
 -                                                                             -
 -                                 BSSE RESULTS                                -
 -                                                                             -
 -                 CP-corrected Total energy:    -1320.866340                  -
 -                                                                             -
 -                       1-body contribution:    -1273.657599                  -
 -                       1-body contribution:      -47.165099                  -
 -                                                                             -
 -                       2-body contribution:       -0.043642                  -
 -                 BSSE-free interaction energy:       -0.043642               -
 -------------------------------------------------------------------------------

 -------------------------------------------------------------------------------
 -                                                                             -
 -                                DBCSR STATISTICS                             -
 -                                                                             -
 -------------------------------------------------------------------------------
 COUNTER                                    TOTAL       BLAS       SMM       ACC
 flops     9 x     9 x     9                94770     100.0%      0.0%      0.0%
 flops     9 x     9 x    32               622080     100.0%      0.0%      0.0%
 flops     9 x     9 x   132              1796256     100.0%      0.0%      0.0%
 flops     9 x     9 x   137              2840832     100.0%      0.0%      0.0%
 flops     9 x     9 x   160              5495040     100.0%      0.0%      0.0%
 flops     9 x    13 x     9              5644080     100.0%      0.0%      0.0%
 flops    13 x     9 x     9              5812560     100.0%      0.0%      0.0%
 flops     9 x     9 x   128              8792064     100.0%      0.0%      0.0%
 flops     9 x    13 x    32             60203520     100.0%      0.0%      0.0%
 flops    13 x     9 x    32             62000640     100.0%      0.0%      0.0%
 flops     9 x    13 x   132            173837664     100.0%      0.0%      0.0%
 flops    13 x     9 x   132            179026848     100.0%      0.0%      0.0%
 flops     9 x    13 x   137            274929408     100.0%      0.0%      0.0%
 flops    13 x     9 x   137            283136256     100.0%      0.0%      0.0%
 flops     9 x    13 x   160            531797760     100.0%      0.0%      0.0%
 flops    13 x     9 x   160            547672320     100.0%      0.0%      0.0%
 flops     9 x    13 x   128            850876416     100.0%      0.0%      0.0%
 flops    13 x     9 x   128            876275712     100.0%      0.0%      0.0%
 flops    13 x    13 x     9           1757059200     100.0%      0.0%      0.0%
 flops    13 x    13 x    32          18741964800     100.0%      0.0%      0.0%
 flops    13 x    13 x   137          85588305920     100.0%      0.0%      0.0%
 flops    13 x    13 x   132         102436551360     100.0%      0.0%      0.0%
 flops    13 x    13 x   160         224122662400     100.0%      0.0%      0.0%
 flops    13 x    13 x   128         358596259840     100.0%      0.0%      0.0%
 flops inhomo. stacks                           0       0.0%      0.0%      0.0%
 flops total                       795.113658E+09     100.0%      0.0%      0.0%
 flops max/rank                     54.384939E+09     100.0%      0.0%      0.0%
 matmuls inhomo. stacks                         0       0.0%      0.0%      0.0%
 matmuls total                           19025641     100.0%      0.0%      0.0%
 number of processed stacks                 29017     100.0%      0.0%      0.0%
 average stack size                                   655.7       0.0       0.0
 marketing flops                     2.256759E+12
 -------------------------------------------------------------------------------
 # multiplications                            352
 max memory usage/rank               2.027983E+09
 # max total images/rank                        1
 # max 3D layers                                1
 # MPI messages exchanged                   33792
 MPI messages size (bytes):
  total size                        22.712291E+09
  min size                           0.000000E+00
  max size                         943.360000E+03
  average size                     672.120375E+03
 MPI breakdown and total messages size (bytes):
             size <=      128                2250                        0
       128 < size <=     8192                 150                    97200
      8192 < size <=    32768                   0                        0
     32768 < size <=   131072                 960                 50474880
    131072 < size <=  4194304               30432              22661730048
   4194304 < size <= 16777216                   0                        0
  16777216 < size                               0                        0
 -------------------------------------------------------------------------------
 -                                                                             -
 -                      DBCSR MESSAGE PASSING PERFORMANCE                      -
 -                                                                             -
 -------------------------------------------------------------------------------
 ROUTINE             CALLS      AVE VOLUME [Bytes]
 MP_Bcast               25                     12.
 MP_Allreduce         2536                      8.
 MP_Alltoall          9916                 615042.
 MP_ISend             5632                 260024.
 MP_IRecv             5632                 239121.
 -------------------------------------------------------------------------------

 -------------------------------------------------------------------------------
 -                                                                             -
 -                                DBM STATISTICS                               -
 -                                                                             -
 -------------------------------------------------------------------------------
    M  x    N  x    K                                          COUNT     PERCENT
 -------------------------------------------------------------------------------

 -------------------------------------------------------------------------------
 -                                                                             -
 -                                GRID STATISTICS                              -
 -                                                                             -
 -------------------------------------------------------------------------------
 LP    KERNEL             BACKEND                              COUNT     PERCENT
 4     collocate ortho    REF                               39113608      49.90%
 4     integrate ortho    REF                               38640936      49.30%
 3     collocate ortho    REF                                 295035       0.38%
 3     integrate ortho    REF                                 291564       0.37%
 2     collocate ortho    REF                                  13769       0.02%
 2     integrate ortho    REF                                  13573       0.02%
 0     collocate general  REF                                  10800       0.01%
 -------------------------------------------------------------------------------

 MEMORY| Estimated peak process memory [MiB]                                1935

 -------------------------------------------------------------------------------
 -                                                                             -
 -                         MESSAGE PASSING PERFORMANCE                         -
 -                                                                             -
 -------------------------------------------------------------------------------

 ROUTINE             CALLS      AVE VOLUME [Bytes]
 MP_Group               24
 MP_Bcast              857                1129732.
 MP_Allreduce         4546                   1682.
 MP_Sync               401
 MP_Alltoall          4676               63140681.
 MP_SendRecv         14934                 475484.
 MP_ISendRecv        10560                 444928.
 MP_Wait             26213
 MP_comm_split          25
 MP_ISend            11384                3186152.
 MP_IRecv            11384                3186273.
 MP_Recv               266                 733345.
 -------------------------------------------------------------------------------


 -------------------------------------------------------------------------------
 -                                                                             -
 -                           R E F E R E N C E S                               -
 -                                                                             -
 -------------------------------------------------------------------------------
 
 CP2K version 2023.1, the CP2K developers group (2023).
 CP2K is freely available from https://www.cp2k.org/ .

 Kuehne,Thomas D.; Iannuzzi,Marcella; Del Ben,Mauro;
 Rybkin,Vladimir V.; Seewald,Patrick; Stein,Frederick; Laino,Teodoro;
 Khaliullin,Rustam Z.; Schuett,Ole; Schiffmann,Florian; Golze,Dorothea;
 Wilhelm,Jan; Chulkov,Sergey; Bani-Hashemian,Mohammad Hossein;
 Weber,Valery; Borstnik,Urban; Taillefumier,Mathieu;
 Jakobovits,Alice Shoshana; Lazzaro,Alfio; Pabst,Hans; Mueller,Tiziano;
 Schade,Robert; Guidon,Manuel; Andermatt,Samuel; Holmberg,Nico;
 Schenter,Gregory K.; Hehn,Anna; Bussy,Augustin; Belleflamme,Fabian;
 Tabacchi,Gloria; Gloess,Andreas; Lass,Michael; Bethune,Iain;
 Mundy,Christopher J.; Plessl,Christian; Watkins,Matt;
 VandeVondele,Joost; Krack,Matthias; Hutter,Juerg. 
 The Journal of Chemical Physics, 152 (19), (2020). 
 CP2K: An electronic structure and molecular dynamics software package -
 Quickstep: Efficient and accurate electronic structure calculations.
 https://doi.org/10.1063/5.0007045

 Goerigk, Lars; Hansen, Andreas; Bauer, Christoph; Ehrlich, Stephan;
 Najibi, Asim; Grimme, Stefan. , 19 (48), (2017). 
 A look at the density functional theory zoo with the advanced GMTKN55 database
 for general main group thermochemistry, kinetics and noncovalent interactions.
 https://doi.org/10.1039/C7CP04913G

 Schuett, Ole; Messmer, Peter; Hutter, Juerg; VandeVondele, Joost. 
 Electronic Structure Calculations on Graphics Processing Units, John
 Wiley & Sons, Ltd, 173-190 (2016). 
 GPU-Accelerated Sparse Matrix-Matrix Multiplication for
 Linear Scaling Density Functional Theory.
 https://doi.org/10.1002/9781118670712.ch8

 Borstnik, U; VandeVondele, J; Weber, V; Hutter, J. 
 PARALLEL COMPUTING, 40 (5-6), 47-58 (2014). 
 Sparse matrix multiplication: The distributed block-compressed sparse
 row library.
 https://doi.org/10.1016/j.parco.2014.03.012

 Hutter, J; Iannuzzi, M; Schiffmann, F; VandeVondele, J. 
 WIREs Comput Mol Sci., 4 (1), 15-25 (2014). 
 CP2K: atomistic simulations of condensed matter systems.
 https://doi.org/10.1002/wcms.1159

 Marek, A; Blum, V; Johanni, R; Havu, V; Lang, B; Auckenthaler, T;
 Heinecke, A; Bungartz, H; Lederer, H. 
 Journal of Physics: Condensed Matter, 26 (21), (2014). 
 The ELPA library: scalable parallel eigenvalue solutions for
 electronic structure
 theory and computational science.
 https://doi.org/10.1088/0953-8984/26/21/213201

 Grimme, S; Ehrlich, S; Goerigk, L. 
 JOURNAL OF COMPUTATIONAL CHEMISTRY, 32, 1456 (2011). 
 Effect of the damping function in dispersion corrected density functional theory.
 https://doi.org/10.1002/jcc.21759

 Grimme, S; Antony, J; Ehrlich, S; Krieg, H. 
 JOURNAL OF CHEMICAL PHYSICS, 132 (15), 154104 (2010). 
 A consistent and accurate ab initio parametrization of density
 functional dispersion correction (DFT-D) for the 94 elements H-Pu.
 https://doi.org/10.1063/1.3382344

 VandeVondele, J; Hutter, J. 
 JOURNAL OF CHEMICAL PHYSICS, 127 (11), 114105 (2007). 
 Gaussian basis sets for accurate calculations on molecular systems in
 gas and condensed phases.
 https://doi.org/10.1063/1.2770708

 Krack, M. 
 THEORETICAL CHEMISTRY ACCOUNTS, 114 (1-3), 145-152 (2005). 
 Pseudopotentials for H to Kr optimized for gradient-corrected
 exchange-correlation functionals.
 https://doi.org/10.1007/s00214-005-0655-y

 VandeVondele, J; Krack, M; Mohamed, F; Parrinello, M; Chassaing, T;
 Hutter, J. COMPUTER PHYSICS COMMUNICATIONS, 167 (2), 103-128 (2005). 
 QUICKSTEP: Fast and accurate density functional calculations using a
 mixed Gaussian and plane waves approach.
 https://doi.org/10.1016/j.cpc.2004.12.014

 Frigo, M; Johnson, SG. 
 PROCEEDINGS OF THE IEEE, 93 (2), 216-231 (2005). 
 The design and implementation of FFTW3.
 https://doi.org/10.1109/JPROC.2004.840301

 Hartwigsen, C; Goedecker, S; Hutter, J. 
 PHYSICAL REVIEW B, 58 (7), 3641-3662 (1998). 
 Relativistic separable dual-space Gaussian pseudopotentials from H to Rn.
 https://doi.org/10.1103/PhysRevB.58.3641

 Lippert, G; Hutter, J; Parrinello, M. 
 MOLECULAR PHYSICS, 92 (3), 477-487 (1997). 
 A hybrid Gaussian and plane wave density functional scheme.
 https://doi.org/10.1080/002689797170220

 Perdew, JP; Burke, K; Ernzerhof, M. 
 PHYSICAL REVIEW LETTERS, 77 (18), 3865-3868 (1996). 
 Generalized gradient approximation made simple.
 https://doi.org/10.1103/PhysRevLett.77.3865

 Goedecker, S; Teter, M; Hutter, J. 
 PHYSICAL REVIEW B, 54 (3), 1703-1710 (1996). 
 Separable dual-space Gaussian pseudopotentials.
 https://doi.org/10.1103/PhysRevB.54.1703


 -------------------------------------------------------------------------------
 -                                                                             -
 -                                T I M I N G                                  -
 -                                                                             -
 -------------------------------------------------------------------------------
 SUBROUTINE                       CALLS  ASD         SELF TIME        TOTAL TIME
                                MAXIMUM       AVERAGE  MAXIMUM  AVERAGE  MAXIMUM
 CP2K                                 1  1.0     3.53     3.68 56141.29 56141.29
 qs_energies                          5  2.0     0.00     0.02 56106.24 56106.90
 scf_env_do_scf                       5  3.0     0.00     0.01 56015.42 56016.01
 scf_env_do_scf_inner_loop          352  4.0     0.03     0.07 56015.41 56016.01
 qs_scf_new_mos                     352  5.0     0.03     0.06 48993.16 48995.70
 eigensolver                        352  6.0     0.06     0.10 48413.40 48418.14
 cp_fm_diag_elpa                    327  7.0     0.01     0.03 44625.75 44632.54
 cp_fm_diag_elpa_base               327  8.0 44600.16 44607.67 44611.04 44612.20
 cp_fm_triangular_multiply         1056  7.0  3722.16  3734.12  3722.16  3734.12
 qs_ks_update_qs_env                352  5.0     0.01     0.01  3315.26  3318.23
 rebuild_ks_matrix                  352  6.0     0.00     0.02  3295.70  3298.80
 qs_ks_build_kohn_sham_matrix       352  7.0     0.15     0.23  3295.69  3298.80
 qs_rho_update_rho_low              357  5.0     0.00     0.00  2539.20  2541.50
 calculate_rho_elec                 357  6.0     7.47     7.64  2539.19  2541.50
 density_rs2pw                      357  7.0     0.06     0.08  2019.09  2299.88
 sum_up_and_integrate               352  8.0    13.27    14.32  2207.83  2211.36
 integrate_v_rspace                 352  9.0     0.03     0.05  2194.56  2198.50
 rs_pw_transfer                    2841  9.5     0.11     0.15  1717.50  1995.76
 grid_collocate_task_list           357  7.0   478.29  1507.36   478.29  1507.36
 pw_transfer                       4601  8.9     1.00     1.18  1474.13  1499.58
 grid_integrate_task_list           352 10.0   444.60  1496.05   444.60  1496.05
 fft_wrap_pw1pw2                   3897  9.9     0.11     0.16  1442.69  1468.01
 mp_alltoall_d11v                  4963  9.3  1182.32  1467.18  1182.32  1467.18
 mp_waitany                       11384 11.5  1109.35  1392.06  1109.35  1392.06
 rs_pw_transfer_RS2PW_150           362  9.0    30.19    33.36   877.45  1377.69
 rs_gather_matrices                 352 10.0     0.73     0.98  1083.60  1367.40
 fft_wrap_pw1pw2_150               1770 10.2   123.85   132.04  1293.49  1314.22
 gspace_mixing                      347  5.0     7.29     7.45  1166.17  1166.62
 -------------------------------------------------------------------------------

 The number of warnings for this run is : 6
 
 -------------------------------------------------------------------------------
  **** **** ******  **  PROGRAM ENDED AT                 2025-02-28 07:56:26.853
 ***** ** ***  *** **   PROGRAM RAN ON                                sebnode127
 **    ****   ******    PROGRAM RAN BY                                    luehrs
 ***** **    ** ** **   PROGRAM PROCESS ID                                953191
  **** **  *******  **  PROGRAM STOPPED IN /home/luehrs/PhD/Sodium_batteries/Sod
                                           ium-graphene-curvature/Curved_surface
                                           /Zig-Zag2
