 DBCSR| CPU Multiplication driver                                           BLAS (U)
 DBCSR| Multrec recursion limit                                              512 (U)
 DBCSR| Multiplication stack size                                           1000 (D)
 DBCSR| Maximum elements for images                                    UNLIMITED (U)
 DBCSR| Multiplicative factor virtual images                                   1 (U)
 DBCSR| Use multiplication densification                                       T (D)
 DBCSR| Multiplication size stacks                                             3 (U)
 DBCSR| Use memory pool for CPU allocation                                     F (U)
 DBCSR| Number of 3D layers                                               SINGLE (U)
 DBCSR| Use MPI memory allocation                                              F (U)
 DBCSR| Use RMA algorithm                                                      F (U)
 DBCSR| Use Communication thread                                               T (U)
 DBCSR| Communication thread load                                             87 (D)
 DBCSR| MPI: My process id                                                     0
 DBCSR| MPI: Number of processes                                              16
 DBCSR| OMP: Current number of threads                                         1
 DBCSR| OMP: Max number of threads                                             1
 DBCSR| Split modifier for TAS multiplication algorithm                  1.0E+00 (U)


  **** **** ******  **  PROGRAM STARTED AT               2025-03-19 16:26:10.479
 ***** ** ***  *** **   PROGRAM STARTED ON                            sebnode133
 **    ****   ******    PROGRAM STARTED BY                                luehrs
 ***** **    ** ** **   PROGRAM PROCESS ID                               1323063
  **** **  *******  **  PROGRAM STARTED IN /home/luehrs/PhD/Sodium_batteries/Sod
                                           ium-graphene-curvature/Curved_surface
                                           _concave/Zig-Zag4

 CP2K| version string:                                       CP2K version 2023.1
 CP2K| source code revision number:                                  git:b888bd8
 CP2K| cp2kflags: omp libint fftw3 libxc elpa parallel scalapack spglib         
 CP2K| is freely available from                            https://www.cp2k.org/
 CP2K| Program compiled at                          Tue Jan 10 19:52:03 UTC 2023
 CP2K| Program compiled on                                            x86-ubc-01
 CP2K| Program compiled for                                Linux-x86_64-gfortran
 CP2K| Data directory path                                       /usr/share/cp2k
 CP2K| Input file name                                            input.BSSE.inp

 GLOBAL| Force Environment number                                              1
 GLOBAL| Basis set file name                                      ./BASIS_MOLOPT
 GLOBAL| Potential file name                                    ./GTH_POTENTIALS
 GLOBAL| MM Potential file name                                     MM_POTENTIAL
 GLOBAL| Coordinate file name                           coords_sur_4_relaxed.xyz
 GLOBAL| Method name                                                        CP2K
 GLOBAL| Project name                                            curv_sur_4_BSSE
 GLOBAL| Run type                                                           BSSE
 GLOBAL| FFT library                                                       FFTW3
 GLOBAL| Diagonalization library                                            ELPA
 GLOBAL| DGEMM library                                                      BLAS
 GLOBAL| Minimum number of eigenvectors for ELPA usage                        16
 GLOBAL| Orthonormality check for eigenvectors                          DISABLED
 GLOBAL| Matrix multiplication library                                 ScaLAPACK
 GLOBAL| All-to-all communication in single precision                          F
 GLOBAL| FFTs using library dependent lengths                                  F
 GLOBAL| Grid backend                                                       AUTO
 GLOBAL| Global print level                                                  LOW
 GLOBAL| MPI I/O enabled                                                       T
 GLOBAL| Total number of message passing processes                            16
 GLOBAL| Number of threads for this process                                    1
 GLOBAL| This output is from process                                           0
 GLOBAL| Stack size for threads created by OpenMP (OMP_STACKSIZE)        default
 GLOBAL| CPU model name                          AMD EPYC 7513 32-Core Processor

 MEMORY| system memory details [Kb]
 MEMORY|                        rank 0           min           max       average
 MEMORY| MemTotal            131828104     131828104     131828104     131828104
 MEMORY| MemFree              99419260      99419260      99419260      99419260
 MEMORY| Buffers                 24872         24872         24872         24872
 MEMORY| Cached                 334292        334288        334292        334288
 MEMORY| Slab                   791568        791568        791568        791568
 MEMORY| SReclaimable           150244        150244        150244        150244
 MEMORY| MemLikelyFree        99928668      99928664      99928668      99928664


 GENERATE|  Preliminary Number of Bonds generated:                             0
 GENERATE|  Achieved consistency in connectivity generation.

 *******************************************************************************
 *******************************************************************************
 **                                                                           **
 **     #####                         ##              ##                      **
 **    ##   ##            ##          ##              ##                      **
 **   ##     ##                       ##            ######                    **
 **   ##     ##  ##   ##  ##   #####  ##  ##   ####   ##    #####    #####    **
 **   ##     ##  ##   ##  ##  ##      ## ##   ##      ##   ##   ##  ##   ##   **
 **   ##  ## ##  ##   ##  ##  ##      ####     ###    ##   ######   ######    **
 **    ##  ###   ##   ##  ##  ##      ## ##      ##   ##   ##       ##        **
 **     #######   #####   ##   #####  ##  ##  ####    ##    #####   ##        **
 **           ##                                                    ##        **
 **                                                                           **
 **                                                ... make the atoms dance   **
 **                                                                           **
 **            Copyright (C) by CP2K developers group (2000-2022)             **
 **                      J. Chem. Phys. 152, 194103 (2020)                    **
 **                                                                           **
 *******************************************************************************


 TOTAL NUMBERS AND MAXIMUM NUMBERS

  Total number of            - Atomic kinds:                                   2
                             - Atoms:                                        225
                             - Shell sets:                                   225
                             - Shells:                                      1125
                             - Primitive Cartesian functions:               1127
                             - Cartesian basis functions:                   3145
                             - Spherical basis functions:                   2921

  Maximum angular momentum of- Orbital basis functions:                        2
                             - Local part of the GTH pseudopotential:          2
                             - Non-local part of the GTH pseudopotential:      1


 SCF PARAMETERS         Density guess:                                    ATOMIC
                        --------------------------------------------------------
                        max_scf:                                             300
                        max_scf_history:                                       0
                        max_diis:                                              4
                        --------------------------------------------------------
                        eps_scf:                                        3.00E-07
                        eps_scf_history:                                0.00E+00
                        eps_diis:                                       1.00E-01
                        eps_eigval:                                     1.00E-05
                        --------------------------------------------------------
                        level_shift [a.u.]:                             0.000000
                        added MOs                                       100    0
                        --------------------------------------------------------
                        Mixing method:                            BROYDEN_MIXING
                                                charge density mixing in g-space
                        --------------------------------------------------------
                        Smear method:                                FERMI_DIRAC
                        Electronic temperature [K]:                        300.0
                        Electronic temperature [a.u.]:                  9.50E-04
                        Accuracy threshold:                             1.00E-10
                        --------------------------------------------------------
                        Outer loop SCF in use 
                        No variables optimised in outer loop
                        eps_scf                                         1.00E-06
                        max_scf                                              300
                        DIIS optimization
                        DIIS buffer length                                     3
                        step_size                                       5.00E-01

 -------------------------------------------------------------------------------
 -                                                                             -
 -  BSSE CALCULATION         FRAGMENT CONF: 10        FRAGMENT SUBCONF: 10     -
 -                           CHARGE =     0           MULTIPLICITY =     0     -
 -                                                                             -
 -                 ATOM INDEX                              ATOM NAME           -
 -                 ----------                              ---------           -
 -                      1                                   C                  -
 -                      2                                   C                  -
 -                      3                                   C                  -
 -                      4                                   C                  -
 -                      5                                   C                  -
 -                      6                                   C                  -
 -                      7                                   C                  -
 -                      8                                   C                  -
 -                      9                                   C                  -
 -                     10                                   C                  -
 -                     11                                   C                  -
 -                     12                                   C                  -
 -                     13                                   C                  -
 -                     14                                   C                  -
 -                     15                                   C                  -
 -                     16                                   C                  -
 -                     17                                   C                  -
 -                     18                                   C                  -
 -                     19                                   C                  -
 -                     20                                   C                  -
 -                     21                                   C                  -
 -                     22                                   C                  -
 -                     23                                   C                  -
 -                     24                                   C                  -
 -                     25                                   C                  -
 -                     26                                   C                  -
 -                     27                                   C                  -
 -                     28                                   C                  -
 -                     29                                   C                  -
 -                     30                                   C                  -
 -                     31                                   C                  -
 -                     32                                   C                  -
 -                     33                                   C                  -
 -                     34                                   C                  -
 -                     35                                   C                  -
 -                     36                                   C                  -
 -                     37                                   C                  -
 -                     38                                   C                  -
 -                     39                                   C                  -
 -                     40                                   C                  -
 -                     41                                   C                  -
 -                     42                                   C                  -
 -                     43                                   C                  -
 -                     44                                   C                  -
 -                     45                                   C                  -
 -                     46                                   C                  -
 -                     47                                   C                  -
 -                     48                                   C                  -
 -                     49                                   C                  -
 -                     50                                   C                  -
 -                     51                                   C                  -
 -                     52                                   C                  -
 -                     53                                   C                  -
 -                     54                                   C                  -
 -                     55                                   C                  -
 -                     56                                   C                  -
 -                     57                                   C                  -
 -                     58                                   C                  -
 -                     59                                   C                  -
 -                     60                                   C                  -
 -                     61                                   C                  -
 -                     62                                   C                  -
 -                     63                                   C                  -
 -                     64                                   C                  -
 -                     65                                   C                  -
 -                     66                                   C                  -
 -                     67                                   C                  -
 -                     68                                   C                  -
 -                     69                                   C                  -
 -                     70                                   C                  -
 -                     71                                   C                  -
 -                     72                                   C                  -
 -                     73                                   C                  -
 -                     74                                   C                  -
 -                     75                                   C                  -
 -                     76                                   C                  -
 -                     77                                   C                  -
 -                     78                                   C                  -
 -                     79                                   C                  -
 -                     80                                   C                  -
 -                     81                                   C                  -
 -                     82                                   C                  -
 -                     83                                   C                  -
 -                     84                                   C                  -
 -                     85                                   C                  -
 -                     86                                   C                  -
 -                     87                                   C                  -
 -                     88                                   C                  -
 -                     89                                   C                  -
 -                     90                                   C                  -
 -                     91                                   C                  -
 -                     92                                   C                  -
 -                     93                                   C                  -
 -                     94                                   C                  -
 -                     95                                   C                  -
 -                     96                                   C                  -
 -                     97                                   C                  -
 -                     98                                   C                  -
 -                     99                                   C                  -
 -                    100                                   C                  -
 -                    101                                   C                  -
 -                    102                                   C                  -
 -                    103                                   C                  -
 -                    104                                   C                  -
 -                    105                                   C                  -
 -                    106                                   C                  -
 -                    107                                   C                  -
 -                    108                                   C                  -
 -                    109                                   C                  -
 -                    110                                   C                  -
 -                    111                                   C                  -
 -                    112                                   C                  -
 -                    113                                   C                  -
 -                    114                                   C                  -
 -                    115                                   C                  -
 -                    116                                   C                  -
 -                    117                                   C                  -
 -                    118                                   C                  -
 -                    119                                   C                  -
 -                    120                                   C                  -
 -                    121                                   C                  -
 -                    122                                   C                  -
 -                    123                                   C                  -
 -                    124                                   C                  -
 -                    125                                   C                  -
 -                    126                                   C                  -
 -                    127                                   C                  -
 -                    128                                   C                  -
 -                    129                                   C                  -
 -                    130                                   C                  -
 -                    131                                   C                  -
 -                    132                                   C                  -
 -                    133                                   C                  -
 -                    134                                   C                  -
 -                    135                                   C                  -
 -                    136                                   C                  -
 -                    137                                   C                  -
 -                    138                                   C                  -
 -                    139                                   C                  -
 -                    140                                   C                  -
 -                    141                                   C                  -
 -                    142                                   C                  -
 -                    143                                   C                  -
 -                    144                                   C                  -
 -                    145                                   C                  -
 -                    146                                   C                  -
 -                    147                                   C                  -
 -                    148                                   C                  -
 -                    149                                   C                  -
 -                    150                                   C                  -
 -                    151                                   C                  -
 -                    152                                   C                  -
 -                    153                                   C                  -
 -                    154                                   C                  -
 -                    155                                   C                  -
 -                    156                                   C                  -
 -                    157                                   C                  -
 -                    158                                   C                  -
 -                    159                                   C                  -
 -                    160                                   C                  -
 -                    161                                   C                  -
 -                    162                                   C                  -
 -                    163                                   C                  -
 -                    164                                   C                  -
 -                    165                                   C                  -
 -                    166                                   C                  -
 -                    167                                   C                  -
 -                    168                                   C                  -
 -                    169                                   C                  -
 -                    170                                   C                  -
 -                    171                                   C                  -
 -                    172                                   C                  -
 -                    173                                   C                  -
 -                    174                                   C                  -
 -                    175                                   C                  -
 -                    176                                   C                  -
 -                    177                                   C                  -
 -                    178                                   C                  -
 -                    179                                   C                  -
 -                    180                                   C                  -
 -                    181                                   C                  -
 -                    182                                   C                  -
 -                    183                                   C                  -
 -                    184                                   C                  -
 -                    185                                   C                  -
 -                    186                                   C                  -
 -                    187                                   C                  -
 -                    188                                   C                  -
 -                    189                                   C                  -
 -                    190                                   C                  -
 -                    191                                   C                  -
 -                    192                                   C                  -
 -                    193                                   C                  -
 -                    194                                   C                  -
 -                    195                                   C                  -
 -                    196                                   C                  -
 -                    197                                   C                  -
 -                    198                                   C                  -
 -                    199                                   C                  -
 -                    200                                   C                  -
 -                    201                                   C                  -
 -                    202                                   C                  -
 -                    203                                   C                  -
 -                    204                                   C                  -
 -                    205                                   C                  -
 -                    206                                   C                  -
 -                    207                                   C                  -
 -                    208                                   C                  -
 -                    209                                   C                  -
 -                    210                                   C                  -
 -                    211                                   C                  -
 -                    212                                   C                  -
 -                    213                                   C                  -
 -                    214                                   C                  -
 -                    215                                   C                  -
 -                    216                                   C                  -
 -                    217                                   C                  -
 -                    218                                   C                  -
 -                    219                                   C                  -
 -                    220                                   C                  -
 -                    221                                   C                  -
 -                    222                                   C                  -
 -                    223                                   C                  -
 -                    224                                   C                  -
 -------------------------------------------------------------------------------

 *******************************************************************************
 *******************************************************************************
 **                                                                           **
 **     #####                         ##              ##                      **
 **    ##   ##            ##          ##              ##                      **
 **   ##     ##                       ##            ######                    **
 **   ##     ##  ##   ##  ##   #####  ##  ##   ####   ##    #####    #####    **
 **   ##     ##  ##   ##  ##  ##      ## ##   ##      ##   ##   ##  ##   ##   **
 **   ##  ## ##  ##   ##  ##  ##      ####     ###    ##   ######   ######    **
 **    ##  ###   ##   ##  ##  ##      ## ##      ##   ##   ##       ##        **
 **     #######   #####   ##   #####  ##  ##  ####    ##    #####   ##        **
 **           ##                                                    ##        **
 **                                                                           **
 **                                                ... make the atoms dance   **
 **                                                                           **
 **            Copyright (C) by CP2K developers group (2000-2022)             **
 **                      J. Chem. Phys. 152, 194103 (2020)                    **
 **                                                                           **
 *******************************************************************************


 TOTAL NUMBERS AND MAXIMUM NUMBERS

  Total number of            - Atomic kinds:                                   1
                             - Atoms:                                        224
                             - Shell sets:                                   224
                             - Shells:                                      1120
                             - Primitive Cartesian functions:               1120
                             - Cartesian basis functions:                   3136
                             - Spherical basis functions:                   2912

  Maximum angular momentum of- Orbital basis functions:                        2
                             - Local part of the GTH pseudopotential:          2
                             - Non-local part of the GTH pseudopotential:      0


 SCF PARAMETERS         Density guess:                                    ATOMIC
                        --------------------------------------------------------
                        max_scf:                                             300
                        max_scf_history:                                       0
                        max_diis:                                              4
                        --------------------------------------------------------
                        eps_scf:                                        3.00E-07
                        eps_scf_history:                                0.00E+00
                        eps_diis:                                       1.00E-01
                        eps_eigval:                                     1.00E-05
                        --------------------------------------------------------
                        level_shift [a.u.]:                             0.000000
                        added MOs                                       100    0
                        --------------------------------------------------------
                        Mixing method:                            BROYDEN_MIXING
                                                charge density mixing in g-space
                        --------------------------------------------------------
                        Smear method:                                FERMI_DIRAC
                        Electronic temperature [K]:                        300.0
                        Electronic temperature [a.u.]:                  9.50E-04
                        Accuracy threshold:                             1.00E-10
                        --------------------------------------------------------
                        Outer loop SCF in use 
                        No variables optimised in outer loop
                        eps_scf                                         1.00E-06
                        max_scf                                              300
                        DIIS optimization
                        DIIS buffer length                                     3
                        step_size                                       5.00E-01

 Number of electrons:                                                        896
 Number of occupied orbitals:                                                448
 Number of molecular orbitals:                                               548

 Number of orbital functions:                                               2912
 Number of independent orbital functions:                                   2912

 Extrapolation method: initial_guess


 SCF WAVEFUNCTION OPTIMIZATION

  Step     Update method      Time    Convergence         Total energy    Change
  ------------------------------------------------------------------------------
     1 NoMix/Diag. 0.10E+00   11.7     0.92855114     -1265.9121593170 -1.27E+03
     2 Broy./Diag. 0.10E+00   15.5     0.26359742     -1214.9946253192  5.09E+01
     3 Broy./Diag. 0.10E+00   16.1     0.05096028     -1222.9896793010 -8.00E+00
     4 Broy./Diag. 0.10E+00   47.2     0.14876035     -1255.9815089556 -3.30E+01
     5 Broy./Diag. 0.10E+00   50.9     0.12768495     -1269.1463072012 -1.32E+01
     6 Broy./Diag. 0.10E+00   51.4     0.08359928     -1270.0244906654 -8.78E-01
     7 Broy./Diag. 0.10E+00   53.7     0.03847276     -1270.7394853252 -7.15E-01
     8 Broy./Diag. 0.10E+00   47.3     0.01198564     -1271.6819603260 -9.42E-01
     9 Broy./Diag. 0.10E+00   49.6     0.00957597     -1272.1601729733 -4.78E-01
    10 Broy./Diag. 0.10E+00   54.5     0.01314543     -1272.5780135346 -4.18E-01
    11 Broy./Diag. 0.10E+00   53.5     0.00493302     -1272.7193181844 -1.41E-01
    12 Broy./Diag. 0.10E+00   55.5     0.00268577     -1273.0271956956 -3.08E-01
    13 Broy./Diag. 0.10E+00   56.5     0.00263463     -1273.2837986134 -2.57E-01
    14 Broy./Diag. 0.10E+00   52.6     0.00419732     -1273.4127999922 -1.29E-01
    15 Broy./Diag. 0.10E+00   52.4     0.00080185     -1273.4914809819 -7.87E-02
    16 Broy./Diag. 0.10E+00   52.4     0.00112930     -1273.4707109507  2.08E-02
    17 Broy./Diag. 0.10E+00   51.1     0.00233761     -1273.4555839786  1.51E-02
    18 Broy./Diag. 0.10E+00   51.5     0.00194279     -1273.5099943536 -5.44E-02
    19 Broy./Diag. 0.10E+00   52.0     0.00209133     -1273.5338882392 -2.39E-02
    20 Broy./Diag. 0.10E+00   49.3     0.00134366     -1273.5544980328 -2.06E-02
    21 Broy./Diag. 0.10E+00   56.8     0.00047129     -1273.5869961959 -3.25E-02
    22 Broy./Diag. 0.10E+00   57.2     0.00019771     -1273.6195103200 -3.25E-02
    23 Broy./Diag. 0.10E+00   54.6     0.00014060     -1273.6458137838 -2.63E-02
    24 Broy./Diag. 0.10E+00   55.2     0.00033124     -1273.6471084954 -1.29E-03
    25 Broy./Diag. 0.10E+00   50.8     0.00019573     -1273.6427937975  4.31E-03
    26 Broy./Diag. 0.10E+00   52.7     0.00020272     -1273.6368986807  5.90E-03
    27 Broy./Diag. 0.10E+00   51.8     0.00028741     -1273.6284236983  8.47E-03
    28 Broy./Diag. 0.10E+00   49.4     0.00033089     -1273.6272934629  1.13E-03
    29 Broy./Diag. 0.10E+00   50.5     0.00055854     -1273.6366635973 -9.37E-03
    30 Broy./Diag. 0.10E+00   53.2     0.00048188     -1273.6435977444 -6.93E-03
    31 Broy./Diag. 0.10E+00   48.6     0.00015325     -1273.6463051775 -2.71E-03
    32 Broy./Diag. 0.10E+00   52.4     0.00017303     -1273.6449244047  1.38E-03
    33 Broy./Diag. 0.10E+00   52.8     0.00014330     -1273.6435634387  1.36E-03
    34 Broy./Diag. 0.10E+00   53.1     0.00009674     -1273.6415868684  1.98E-03
    35 Broy./Diag. 0.10E+00   53.2     0.00014743     -1273.6439586183 -2.37E-03
    36 Broy./Diag. 0.10E+00   50.6     0.00020370     -1273.6459831582 -2.02E-03
    37 Broy./Diag. 0.10E+00   56.1     0.00009722     -1273.6488357099 -2.85E-03
    38 Broy./Diag. 0.10E+00   53.0     0.00002377     -1273.6511731862 -2.34E-03
    39 Broy./Diag. 0.10E+00   54.8     0.00009044     -1273.6525682280 -1.40E-03
    40 Broy./Diag. 0.10E+00   51.7     0.00010735     -1273.6544350585 -1.87E-03
    41 Broy./Diag. 0.10E+00   51.3     0.00004590     -1273.6554015567 -9.66E-04
    42 Broy./Diag. 0.10E+00   51.0     0.00005335     -1273.6569120628 -1.51E-03
    43 Broy./Diag. 0.10E+00   48.9     0.00004781     -1273.6583973213 -1.49E-03
    44 Broy./Diag. 0.10E+00   54.3     0.00001419     -1273.6588563239 -4.59E-04
    45 Broy./Diag. 0.10E+00   53.2     0.00001349     -1273.6587209794  1.35E-04
    46 Broy./Diag. 0.10E+00   52.0     0.00004057     -1273.6581500713  5.71E-04
    47 Broy./Diag. 0.10E+00   53.0     0.00003752     -1273.6573857175  7.64E-04
    48 Broy./Diag. 0.10E+00   50.2     0.00001692     -1273.6568065292  5.79E-04
    49 Broy./Diag. 0.10E+00   53.7     0.00001059     -1273.6565780075  2.29E-04
    50 Broy./Diag. 0.10E+00   54.2     0.00001318     -1273.6564513041  1.27E-04
    51 Broy./Diag. 0.10E+00   56.2     0.00001933     -1273.6563118595  1.39E-04
    52 Broy./Diag. 0.10E+00   53.7     0.00001586     -1273.6563322507 -2.04E-05
    53 Broy./Diag. 0.10E+00   53.8     0.00001590     -1273.6564232868 -9.10E-05
    54 Broy./Diag. 0.10E+00   50.5     0.00001031     -1273.6567227652 -2.99E-04
    55 Broy./Diag. 0.10E+00   49.2     0.00000458     -1273.6570550338 -3.32E-04
    56 Broy./Diag. 0.10E+00   54.5     0.00000833     -1273.6573083452 -2.53E-04
    57 Broy./Diag. 0.10E+00   54.5     0.00000873     -1273.6575237164 -2.15E-04
    58 Broy./Diag. 0.10E+00   54.4     0.00000484     -1273.6576601005 -1.36E-04
    59 Broy./Diag. 0.10E+00   53.2     0.00000201     -1273.6576960670 -3.60E-05
    60 Broy./Diag. 0.10E+00   52.8     0.00000407     -1273.6576918435  4.22E-06
    61 Broy./Diag. 0.10E+00   49.7     0.00000453     -1273.6576470758  4.48E-05
    62 Broy./Diag. 0.10E+00   52.5     0.00000300     -1273.6576183995  2.87E-05
    63 Broy./Diag. 0.10E+00   50.7     0.00000238     -1273.6575978393  2.06E-05
    64 Broy./Diag. 0.10E+00   52.6     0.00000200     -1273.6575509466  4.69E-05
    65 Broy./Diag. 0.10E+00   50.6     0.00000102     -1273.6575146247  3.63E-05
    66 Broy./Diag. 0.10E+00   48.9     0.00000210     -1273.6574806647  3.40E-05
    67 Broy./Diag. 0.10E+00   54.6     0.00000259     -1273.6574566839  2.40E-05
    68 Broy./Diag. 0.10E+00   58.5     0.00000212     -1273.6574611365 -4.45E-06
    69 Broy./Diag. 0.10E+00   57.7     0.00000155     -1273.6575033562 -4.22E-05
    70 Broy./Diag. 0.10E+00   60.3     0.00000156     -1273.6575427982 -3.94E-05
    71 Broy./Diag. 0.10E+00   52.7     0.00000127     -1273.6575676944 -2.49E-05
    72 Broy./Diag. 0.10E+00   51.9     0.00000073     -1273.6575829749 -1.53E-05
    73 Broy./Diag. 0.10E+00   49.7     0.00000085     -1273.6575853230 -2.35E-06
    74 Broy./Diag. 0.10E+00   52.5     0.00000063     -1273.6575947149 -9.39E-06
    75 Broy./Diag. 0.10E+00   51.2     0.00000025     -1273.6575994268 -4.71E-06

  *** SCF run converged in    75 steps ***


  Electronic density on regular grids:       -896.0000000000        0.0000000000
  Core density on regular grids:              895.9999999992       -0.0000000008
  Total charge density on r-space grids:       -0.0000000007
  Total charge density g-space grids:          -0.0000000007

  Overlap energy of the core charge distribution:               0.00005632564276
  Self energy of the core charge distribution:              -2987.04177559540722
  Core Hamiltonian energy:                                    937.74498371287325
  Hartree energy:                                            1167.03334637293665
  Exchange-correlation energy:                               -391.12778182923921
  Dispersion energy:                                           -0.25986067328793
  Electronic entropic energy:                                  -0.00656773959893
  Fermi energy:                                                -0.15103835500878

  Total energy:                                             -1273.65759942676164

  outer SCF iter =    1 RMS gradient =   0.25E-06 energy =      -1273.6575994268
  outer SCF loop converged in   1 iterations or   75 steps


 *** WARNING in qs_loc_utils.F:1500 :: User requested the calculation of ***
 *** the localized wavefunction but the section LOCALIZE was not         ***
 *** specified. Localization will not be performed!                      ***


 -------------------------------------------------------------------------------
 -                                                                             -
 -  BSSE CALCULATION         FRAGMENT CONF: 01        FRAGMENT SUBCONF: 01     -
 -                           CHARGE =     0           MULTIPLICITY =     0     -
 -                                                                             -
 -                 ATOM INDEX                              ATOM NAME           -
 -                 ----------                              ---------           -
 -                    225                                   Na                 -
 -------------------------------------------------------------------------------

 *******************************************************************************
 *******************************************************************************
 **                                                                           **
 **     #####                         ##              ##                      **
 **    ##   ##            ##          ##              ##                      **
 **   ##     ##                       ##            ######                    **
 **   ##     ##  ##   ##  ##   #####  ##  ##   ####   ##    #####    #####    **
 **   ##     ##  ##   ##  ##  ##      ## ##   ##      ##   ##   ##  ##   ##   **
 **   ##  ## ##  ##   ##  ##  ##      ####     ###    ##   ######   ######    **
 **    ##  ###   ##   ##  ##  ##      ## ##      ##   ##   ##       ##        **
 **     #######   #####   ##   #####  ##  ##  ####    ##    #####   ##        **
 **           ##                                                    ##        **
 **                                                                           **
 **                                                ... make the atoms dance   **
 **                                                                           **
 **            Copyright (C) by CP2K developers group (2000-2022)             **
 **                      J. Chem. Phys. 152, 194103 (2020)                    **
 **                                                                           **
 *******************************************************************************

 *** WARNING in qs_environment.F:1486 :: More added MOs requested than     ***
 *** available. The full set of unoccupied MOs will be used. Use           ***
 *** 'ADDED_MOS -1' to always use all available MOs and to get rid of this ***
 *** warning.                                                              ***



 TOTAL NUMBERS AND MAXIMUM NUMBERS

  Total number of            - Atomic kinds:                                   1
                             - Atoms:                                          1
                             - Shell sets:                                     1
                             - Shells:                                         5
                             - Primitive Cartesian functions:                  7
                             - Cartesian basis functions:                      9
                             - Spherical basis functions:                      9

  Maximum angular momentum of- Orbital basis functions:                        1
                             - Local part of the GTH pseudopotential:          2
                             - Non-local part of the GTH pseudopotential:      1


 SCF PARAMETERS         Density guess:                                    ATOMIC
                        --------------------------------------------------------
                        max_scf:                                             300
                        max_scf_history:                                       0
                        max_diis:                                              4
                        --------------------------------------------------------
                        eps_scf:                                        3.00E-07
                        eps_scf_history:                                0.00E+00
                        eps_diis:                                       1.00E-01
                        eps_eigval:                                     1.00E-05
                        --------------------------------------------------------
                        level_shift [a.u.]:                             0.000000
                        added MOs                                         4    0
                        --------------------------------------------------------
                        Mixing method:                            BROYDEN_MIXING
                                                charge density mixing in g-space
                        --------------------------------------------------------
                        Smear method:                                FERMI_DIRAC
                        Electronic temperature [K]:                        300.0
                        Electronic temperature [a.u.]:                  9.50E-04
                        Accuracy threshold:                             1.00E-10
                        --------------------------------------------------------
                        Outer loop SCF in use 
                        No variables optimised in outer loop
                        eps_scf                                         1.00E-06
                        max_scf                                              300
                        DIIS optimization
                        DIIS buffer length                                     3
                        step_size                                       5.00E-01

 Number of electrons:                                                          9
 Number of occupied orbitals:                                                  5
 Number of molecular orbitals:                                                 9

 Number of orbital functions:                                                  9
 Number of independent orbital functions:                                      9

 Extrapolation method: initial_guess


 SCF WAVEFUNCTION OPTIMIZATION

  Step     Update method      Time    Convergence         Total energy    Change
  ------------------------------------------------------------------------------
     1 NoMix/Diag. 0.10E+00    5.0     0.02077849       -47.1632594977 -4.72E+01
     2 Broy./Diag. 0.10E+00    6.0     0.00009672       -47.1203893767  4.29E-02
     3 Broy./Diag. 0.10E+00    9.8     0.00099685       -47.1612595819 -4.09E-02
     4 Broy./Diag. 0.10E+00    8.9     0.00002400       -47.1689282021 -7.67E-03
     5 Broy./Diag. 0.10E+00    6.7     0.00025248       -47.1689648897 -3.67E-05
     6 Broy./Diag. 0.10E+00    8.7     0.00000809       -47.1690886732 -1.24E-04
     7 Broy./Diag. 0.10E+00    8.5     0.00014091       -47.1674072023  1.68E-03
     8 Broy./Diag. 0.10E+00    7.2     0.00001764       -47.1664598477  9.47E-04
     9 Broy./Diag. 0.10E+00    9.6     0.00018660       -47.1658059442  6.54E-04
    10 Broy./Diag. 0.10E+00   13.7     0.00000972       -47.1654200528  3.86E-04
    11 Broy./Diag. 0.10E+00    8.2     0.00009319       -47.1652154525  2.05E-04
    12 Broy./Diag. 0.10E+00    9.8     0.00000301       -47.1651530849  6.24E-05
    13 Broy./Diag. 0.10E+00    9.2     0.00000819       -47.1652495037 -9.64E-05
    14 Broy./Diag. 0.10E+00   10.3     0.00000082       -47.1652665703 -1.71E-05
    15 Broy./Diag. 0.10E+00   10.5     0.00001231       -47.1651050532  1.62E-04
    16 Broy./Diag. 0.10E+00    9.3     0.00000255       -47.1650760864  2.90E-05
    17 Broy./Diag. 0.10E+00   10.6     0.00000272       -47.1651133202 -3.72E-05
    18 Broy./Diag. 0.10E+00    7.5     0.00000204       -47.1651549750 -4.17E-05
    19 Broy./Diag. 0.10E+00    9.7     0.00000145       -47.1651731376 -1.82E-05
    20 Broy./Diag. 0.10E+00    9.8     0.00000263       -47.1651690355  4.10E-06
    21 Broy./Diag. 0.10E+00   11.2     0.00000267       -47.1651480779  2.10E-05
    22 Broy./Diag. 0.10E+00    8.8     0.00000453       -47.1651171500  3.09E-05
    23 Broy./Diag. 0.10E+00    9.2     0.00000312       -47.1650966877  2.05E-05
    24 Broy./Diag. 0.10E+00    8.7     0.00000121       -47.1650945536  2.13E-06
    25 Broy./Diag. 0.10E+00    9.6     0.00000028       -47.1651024552 -7.90E-06

  *** SCF run converged in    25 steps ***


  Electronic density on regular grids:         -9.0003208117       -0.0003208117
  Core density on regular grids:                9.0000000000       -0.0000000000
  Total charge density on r-space grids:       -0.0003208117
  Total charge density g-space grids:          -0.0003208117

  Overlap energy of the core charge distribution:               0.00000000000000
  Self energy of the core charge distribution:                -96.60649019442629
  Core Hamiltonian energy:                                     29.76189433956257
  Hartree energy:                                              26.72516058119544
  Exchange-correlation energy:                                 -7.04434950492770
  Dispersion energy:                                           -0.00000063510881
  Electronic entropic energy:                                  -0.00131704147593
  Fermi energy:                                                -0.09176732213606

  Total energy:                                               -47.16510245518070

  outer SCF iter =    1 RMS gradient =   0.28E-06 energy =        -47.1651024552
  outer SCF loop converged in   1 iterations or   25 steps


 *** WARNING in qs_loc_utils.F:1500 :: User requested the calculation of ***
 *** the localized wavefunction but the section LOCALIZE was not         ***
 *** specified. Localization will not be performed!                      ***


 -------------------------------------------------------------------------------
 -                                                                             -
 -  BSSE CALCULATION         FRAGMENT CONF: 11        FRAGMENT SUBCONF: 10     -
 -                           CHARGE =     0           MULTIPLICITY =     0     -
 -                                                                             -
 -                 ATOM INDEX                              ATOM NAME           -
 -                 ----------                              ---------           -
 -                      1                                   C                  -
 -                      2                                   C                  -
 -                      3                                   C                  -
 -                      4                                   C                  -
 -                      5                                   C                  -
 -                      6                                   C                  -
 -                      7                                   C                  -
 -                      8                                   C                  -
 -                      9                                   C                  -
 -                     10                                   C                  -
 -                     11                                   C                  -
 -                     12                                   C                  -
 -                     13                                   C                  -
 -                     14                                   C                  -
 -                     15                                   C                  -
 -                     16                                   C                  -
 -                     17                                   C                  -
 -                     18                                   C                  -
 -                     19                                   C                  -
 -                     20                                   C                  -
 -                     21                                   C                  -
 -                     22                                   C                  -
 -                     23                                   C                  -
 -                     24                                   C                  -
 -                     25                                   C                  -
 -                     26                                   C                  -
 -                     27                                   C                  -
 -                     28                                   C                  -
 -                     29                                   C                  -
 -                     30                                   C                  -
 -                     31                                   C                  -
 -                     32                                   C                  -
 -                     33                                   C                  -
 -                     34                                   C                  -
 -                     35                                   C                  -
 -                     36                                   C                  -
 -                     37                                   C                  -
 -                     38                                   C                  -
 -                     39                                   C                  -
 -                     40                                   C                  -
 -                     41                                   C                  -
 -                     42                                   C                  -
 -                     43                                   C                  -
 -                     44                                   C                  -
 -                     45                                   C                  -
 -                     46                                   C                  -
 -                     47                                   C                  -
 -                     48                                   C                  -
 -                     49                                   C                  -
 -                     50                                   C                  -
 -                     51                                   C                  -
 -                     52                                   C                  -
 -                     53                                   C                  -
 -                     54                                   C                  -
 -                     55                                   C                  -
 -                     56                                   C                  -
 -                     57                                   C                  -
 -                     58                                   C                  -
 -                     59                                   C                  -
 -                     60                                   C                  -
 -                     61                                   C                  -
 -                     62                                   C                  -
 -                     63                                   C                  -
 -                     64                                   C                  -
 -                     65                                   C                  -
 -                     66                                   C                  -
 -                     67                                   C                  -
 -                     68                                   C                  -
 -                     69                                   C                  -
 -                     70                                   C                  -
 -                     71                                   C                  -
 -                     72                                   C                  -
 -                     73                                   C                  -
 -                     74                                   C                  -
 -                     75                                   C                  -
 -                     76                                   C                  -
 -                     77                                   C                  -
 -                     78                                   C                  -
 -                     79                                   C                  -
 -                     80                                   C                  -
 -                     81                                   C                  -
 -                     82                                   C                  -
 -                     83                                   C                  -
 -                     84                                   C                  -
 -                     85                                   C                  -
 -                     86                                   C                  -
 -                     87                                   C                  -
 -                     88                                   C                  -
 -                     89                                   C                  -
 -                     90                                   C                  -
 -                     91                                   C                  -
 -                     92                                   C                  -
 -                     93                                   C                  -
 -                     94                                   C                  -
 -                     95                                   C                  -
 -                     96                                   C                  -
 -                     97                                   C                  -
 -                     98                                   C                  -
 -                     99                                   C                  -
 -                    100                                   C                  -
 -                    101                                   C                  -
 -                    102                                   C                  -
 -                    103                                   C                  -
 -                    104                                   C                  -
 -                    105                                   C                  -
 -                    106                                   C                  -
 -                    107                                   C                  -
 -                    108                                   C                  -
 -                    109                                   C                  -
 -                    110                                   C                  -
 -                    111                                   C                  -
 -                    112                                   C                  -
 -                    113                                   C                  -
 -                    114                                   C                  -
 -                    115                                   C                  -
 -                    116                                   C                  -
 -                    117                                   C                  -
 -                    118                                   C                  -
 -                    119                                   C                  -
 -                    120                                   C                  -
 -                    121                                   C                  -
 -                    122                                   C                  -
 -                    123                                   C                  -
 -                    124                                   C                  -
 -                    125                                   C                  -
 -                    126                                   C                  -
 -                    127                                   C                  -
 -                    128                                   C                  -
 -                    129                                   C                  -
 -                    130                                   C                  -
 -                    131                                   C                  -
 -                    132                                   C                  -
 -                    133                                   C                  -
 -                    134                                   C                  -
 -                    135                                   C                  -
 -                    136                                   C                  -
 -                    137                                   C                  -
 -                    138                                   C                  -
 -                    139                                   C                  -
 -                    140                                   C                  -
 -                    141                                   C                  -
 -                    142                                   C                  -
 -                    143                                   C                  -
 -                    144                                   C                  -
 -                    145                                   C                  -
 -                    146                                   C                  -
 -                    147                                   C                  -
 -                    148                                   C                  -
 -                    149                                   C                  -
 -                    150                                   C                  -
 -                    151                                   C                  -
 -                    152                                   C                  -
 -                    153                                   C                  -
 -                    154                                   C                  -
 -                    155                                   C                  -
 -                    156                                   C                  -
 -                    157                                   C                  -
 -                    158                                   C                  -
 -                    159                                   C                  -
 -                    160                                   C                  -
 -                    161                                   C                  -
 -                    162                                   C                  -
 -                    163                                   C                  -
 -                    164                                   C                  -
 -                    165                                   C                  -
 -                    166                                   C                  -
 -                    167                                   C                  -
 -                    168                                   C                  -
 -                    169                                   C                  -
 -                    170                                   C                  -
 -                    171                                   C                  -
 -                    172                                   C                  -
 -                    173                                   C                  -
 -                    174                                   C                  -
 -                    175                                   C                  -
 -                    176                                   C                  -
 -                    177                                   C                  -
 -                    178                                   C                  -
 -                    179                                   C                  -
 -                    180                                   C                  -
 -                    181                                   C                  -
 -                    182                                   C                  -
 -                    183                                   C                  -
 -                    184                                   C                  -
 -                    185                                   C                  -
 -                    186                                   C                  -
 -                    187                                   C                  -
 -                    188                                   C                  -
 -                    189                                   C                  -
 -                    190                                   C                  -
 -                    191                                   C                  -
 -                    192                                   C                  -
 -                    193                                   C                  -
 -                    194                                   C                  -
 -                    195                                   C                  -
 -                    196                                   C                  -
 -                    197                                   C                  -
 -                    198                                   C                  -
 -                    199                                   C                  -
 -                    200                                   C                  -
 -                    201                                   C                  -
 -                    202                                   C                  -
 -                    203                                   C                  -
 -                    204                                   C                  -
 -                    205                                   C                  -
 -                    206                                   C                  -
 -                    207                                   C                  -
 -                    208                                   C                  -
 -                    209                                   C                  -
 -                    210                                   C                  -
 -                    211                                   C                  -
 -                    212                                   C                  -
 -                    213                                   C                  -
 -                    214                                   C                  -
 -                    215                                   C                  -
 -                    216                                   C                  -
 -                    217                                   C                  -
 -                    218                                   C                  -
 -                    219                                   C                  -
 -                    220                                   C                  -
 -                    221                                   C                  -
 -                    222                                   C                  -
 -                    223                                   C                  -
 -                    224                                   C                  -
 -                    225                                   Na_ghost           -
 -------------------------------------------------------------------------------

 *******************************************************************************
 *******************************************************************************
 **                                                                           **
 **     #####                         ##              ##                      **
 **    ##   ##            ##          ##              ##                      **
 **   ##     ##                       ##            ######                    **
 **   ##     ##  ##   ##  ##   #####  ##  ##   ####   ##    #####    #####    **
 **   ##     ##  ##   ##  ##  ##      ## ##   ##      ##   ##   ##  ##   ##   **
 **   ##  ## ##  ##   ##  ##  ##      ####     ###    ##   ######   ######    **
 **    ##  ###   ##   ##  ##  ##      ## ##      ##   ##   ##       ##        **
 **     #######   #####   ##   #####  ##  ##  ####    ##    #####   ##        **
 **           ##                                                    ##        **
 **                                                                           **
 **                                                ... make the atoms dance   **
 **                                                                           **
 **            Copyright (C) by CP2K developers group (2000-2022)             **
 **                      J. Chem. Phys. 152, 194103 (2020)                    **
 **                                                                           **
 *******************************************************************************


 TOTAL NUMBERS AND MAXIMUM NUMBERS

  Total number of            - Atomic kinds:                                   2
                             - Atoms:                                        225
                             - Shell sets:                                   225
                             - Shells:                                      1125
                             - Primitive Cartesian functions:               1127
                             - Cartesian basis functions:                   3145
                             - Spherical basis functions:                   2921

  Maximum angular momentum of- Orbital basis functions:                        2
                             - Local part of the GTH pseudopotential:          2
                             - Non-local part of the GTH pseudopotential:      0


 SCF PARAMETERS         Density guess:                                    ATOMIC
                        --------------------------------------------------------
                        max_scf:                                             300
                        max_scf_history:                                       0
                        max_diis:                                              4
                        --------------------------------------------------------
                        eps_scf:                                        3.00E-07
                        eps_scf_history:                                0.00E+00
                        eps_diis:                                       1.00E-01
                        eps_eigval:                                     1.00E-05
                        --------------------------------------------------------
                        level_shift [a.u.]:                             0.000000
                        added MOs                                       100    0
                        --------------------------------------------------------
                        Mixing method:                            BROYDEN_MIXING
                                                charge density mixing in g-space
                        --------------------------------------------------------
                        Smear method:                                FERMI_DIRAC
                        Electronic temperature [K]:                        300.0
                        Electronic temperature [a.u.]:                  9.50E-04
                        Accuracy threshold:                             1.00E-10
                        --------------------------------------------------------
                        Outer loop SCF in use 
                        No variables optimised in outer loop
                        eps_scf                                         1.00E-06
                        max_scf                                              300
                        DIIS optimization
                        DIIS buffer length                                     3
                        step_size                                       5.00E-01

 Number of electrons:                                                        896
 Number of occupied orbitals:                                                448
 Number of molecular orbitals:                                               548

 Number of orbital functions:                                               2921
 Number of independent orbital functions:                                   2921

 Extrapolation method: initial_guess


 SCF WAVEFUNCTION OPTIMIZATION

  Step     Update method      Time    Convergence         Total energy    Change
  ------------------------------------------------------------------------------
     1 NoMix/Diag. 0.10E+00   46.6     0.92863508     -1265.9121593170 -1.27E+03
     2 Broy./Diag. 0.10E+00   51.2     0.26360119     -1214.9864405500  5.09E+01
     3 Broy./Diag. 0.10E+00   49.7     0.05101470     -1222.9812075700 -7.99E+00
     4 Broy./Diag. 0.10E+00   50.3     0.14858464     -1255.9711789212 -3.30E+01
     5 Broy./Diag. 0.10E+00   47.8     0.12752185     -1269.1418113273 -1.32E+01
     6 Broy./Diag. 0.10E+00   51.2     0.08370945     -1270.0201618214 -8.78E-01
     7 Broy./Diag. 0.10E+00   54.7     0.03860027     -1270.7351787375 -7.15E-01
     8 Broy./Diag. 0.10E+00   57.3     0.01194789     -1271.6784820980 -9.43E-01
     9 Broy./Diag. 0.10E+00   61.2     0.00964276     -1272.1573044429 -4.79E-01
    10 Broy./Diag. 0.10E+00   59.9     0.01319598     -1272.5762075705 -4.19E-01
    11 Broy./Diag. 0.10E+00   54.1     0.00511585     -1272.7177448827 -1.42E-01
    12 Broy./Diag. 0.10E+00   57.7     0.00270569     -1273.0262163207 -3.08E-01
    13 Broy./Diag. 0.10E+00   54.4     0.00387672     -1273.2823011120 -2.56E-01
    14 Broy./Diag. 0.10E+00   62.2     0.00594060     -1273.3917447893 -1.09E-01
    15 Broy./Diag. 0.10E+00   53.1     0.00702194     -1273.4776059704 -8.59E-02
    16 Broy./Diag. 0.10E+00   54.7     0.00169648     -1273.4987625408 -2.12E-02
    17 Broy./Diag. 0.10E+00   54.2     0.00134662     -1273.4435314837  5.52E-02
    18 Broy./Diag. 0.10E+00   55.9     0.00153836     -1273.4459016526 -2.37E-03
    19 Broy./Diag. 0.10E+00   59.4     0.00068573     -1273.4768286039 -3.09E-02
    20 Broy./Diag. 0.10E+00   52.3     0.00068054     -1273.4999659610 -2.31E-02
    21 Broy./Diag. 0.10E+00   57.1     0.00114781     -1273.5286622096 -2.87E-02
    22 Broy./Diag. 0.10E+00   51.9     0.00030255     -1273.5803729543 -5.17E-02
    23 Broy./Diag. 0.10E+00   55.2     0.00038538     -1273.6105446494 -3.02E-02
    24 Broy./Diag. 0.10E+00   51.2     0.00066400     -1273.6344755556 -2.39E-02
    25 Broy./Diag. 0.10E+00   55.7     0.00118750     -1273.6551979524 -2.07E-02
    26 Broy./Diag. 0.10E+00   55.0     0.00091866     -1273.6649019009 -9.70E-03
    27 Broy./Diag. 0.10E+00   55.2     0.00070267     -1273.6569783327  7.92E-03
    28 Broy./Diag. 0.10E+00   55.2     0.00038218     -1273.6439793994  1.30E-02
    29 Broy./Diag. 0.10E+00   58.0     0.00043555     -1273.6387174857  5.26E-03
    30 Broy./Diag. 0.10E+00   55.9     0.00043787     -1273.6400643412 -1.35E-03
    31 Broy./Diag. 0.10E+00   54.8     0.00025617     -1273.6468970689 -6.83E-03
    32 Broy./Diag. 0.10E+00   58.8     0.00014630     -1273.6517204642 -4.82E-03
    33 Broy./Diag. 0.10E+00   57.7     0.00023348     -1273.6526451202 -9.25E-04
    34 Broy./Diag. 0.10E+00   54.7     0.00020096     -1273.6551853355 -2.54E-03
    35 Broy./Diag. 0.10E+00   56.8     0.00020631     -1273.6577546233 -2.57E-03
    36 Broy./Diag. 0.10E+00   55.1     0.00022257     -1273.6587182926 -9.64E-04
    37 Broy./Diag. 0.10E+00   56.3     0.00017056     -1273.6587594801 -4.12E-05
    38 Broy./Diag. 0.10E+00   53.7     0.00014568     -1273.6573656727  1.39E-03
    39 Broy./Diag. 0.10E+00   54.4     0.00015500     -1273.6549450527  2.42E-03
    40 Broy./Diag. 0.10E+00   57.5     0.00017210     -1273.6542262802  7.19E-04
    41 Broy./Diag. 0.10E+00   55.8     0.00007827     -1273.6546122153 -3.86E-04
    42 Broy./Diag. 0.10E+00   56.4     0.00003627     -1273.6553610393 -7.49E-04
    43 Broy./Diag. 0.10E+00   54.8     0.00006113     -1273.6560987084 -7.38E-04
    44 Broy./Diag. 0.10E+00   57.8     0.00004600     -1273.6562481365 -1.49E-04
    45 Broy./Diag. 0.10E+00   57.6     0.00002520     -1273.6563082927 -6.02E-05
    46 Broy./Diag. 0.10E+00   55.1     0.00004580     -1273.6564229205 -1.15E-04
    47 Broy./Diag. 0.10E+00   55.1     0.00005119     -1273.6565693278 -1.46E-04
    48 Broy./Diag. 0.10E+00   56.5     0.00005083     -1273.6569695509 -4.00E-04
    49 Broy./Diag. 0.10E+00   56.4     0.00003308     -1273.6573344351 -3.65E-04
    50 Broy./Diag. 0.10E+00   59.1     0.00002741     -1273.6574715157 -1.37E-04
    51 Broy./Diag. 0.10E+00   62.6     0.00002016     -1273.6573941887  7.73E-05
    52 Broy./Diag. 0.10E+00   55.4     0.00001315     -1273.6572354001  1.59E-04
[...]
   107 Broy./Diag. 0.10E+00    9.6     0.00000246     -1320.8703457465  6.35E-06
   108 Broy./Diag. 0.10E+00    9.6     0.00000196     -1320.8703430691  2.68E-06
   109 Broy./Diag. 0.10E+00    9.6     0.00000151     -1320.8703436862 -6.17E-07
   110 Broy./Diag. 0.10E+00    9.8     0.00000134     -1320.8703448679 -1.18E-06
   111 Broy./Diag. 0.10E+00    9.6     0.00000073     -1320.8703457514 -8.83E-07
   112 Broy./Diag. 0.10E+00    9.6     0.00000085     -1320.8703455119  2.39E-07
   113 Broy./Diag. 0.10E+00    9.6     0.00000062     -1320.8703453086  2.03E-07
   114 Broy./Diag. 0.10E+00    9.6     0.00000029     -1320.8703478863 -2.58E-06

  *** SCF run converged in   114 steps ***


  Electronic density on regular grids:       -905.0003226900       -0.0003226900
  Core density on regular grids:              904.9999999992       -0.0000000008
  Total charge density on r-space grids:       -0.0003226907
  Total charge density g-space grids:          -0.0003226907

  Overlap energy of the core charge distribution:               0.00005632564276
  Self energy of the core charge distribution:              -3083.64826578983366
  Core Hamiltonian energy:                                    967.94386311809490
  Hartree energy:                                            1193.54447235414750
  Exchange-correlation energy:                               -398.43904972622482
  Dispersion energy:                                           -0.26381555012090
  Electronic entropic energy:                                  -0.00760861224321
  Fermi energy:                                                -0.14298990074499

  Total energy:                                             -1320.87034788625647

  outer SCF iter =    1 RMS gradient =   0.29E-06 energy =      -1320.8703478863
  outer SCF loop converged in   1 iterations or  114 steps


 *** WARNING in qs_loc_utils.F:1500 :: User requested the calculation of ***
 *** the localized wavefunction but the section LOCALIZE was not         ***
 *** specified. Localization will not be performed!                      ***


 -------------------------------------------------------------------------------
 -                                                                             -
 -                                 BSSE RESULTS                                -
 -                                                                             -
 -                 CP-corrected Total energy:    -1320.868389                  -
 -                                                                             -
 -                       1-body contribution:    -1273.657599                  -
 -                       1-body contribution:      -47.165102                  -
 -                                                                             -
 -                       2-body contribution:       -0.045687                  -
 -                 BSSE-free interaction energy:       -0.045687               -
 -------------------------------------------------------------------------------

 -------------------------------------------------------------------------------
 -                                                                             -
 -                                DBCSR STATISTICS                             -
 -                                                                             -
 -------------------------------------------------------------------------------
 COUNTER                                    TOTAL       BLAS       SMM       ACC
 flops     9 x     9 x     9                88938     100.0%      0.0%      0.0%
 flops     9 x     9 x    32               559872     100.0%      0.0%      0.0%
 flops     9 x     9 x   132              1796256     100.0%      0.0%      0.0%
 flops     9 x     9 x   137              2530116     100.0%      0.0%      0.0%
 flops     9 x     9 x   160              5132160     100.0%      0.0%      0.0%
 flops     9 x    13 x     9              7050888     100.0%      0.0%      0.0%
 flops    13 x     9 x     9              7202520     100.0%      0.0%      0.0%
 flops     9 x     9 x   128              8211456     100.0%      0.0%      0.0%
 flops     9 x    13 x    32             75209472     100.0%      0.0%      0.0%
 flops    13 x     9 x    32             76826880     100.0%      0.0%      0.0%
 flops     9 x    13 x   132            241297056     100.0%      0.0%      0.0%
 flops    13 x     9 x   132            246486240     100.0%      0.0%      0.0%
 flops     9 x    13 x   137            339878916     100.0%      0.0%      0.0%
 flops    13 x     9 x   137            347188140     100.0%      0.0%      0.0%
 flops     9 x    13 x   160            689420160     100.0%      0.0%      0.0%
 flops    13 x     9 x   160            704246400     100.0%      0.0%      0.0%
 flops     9 x    13 x   128           1103072256     100.0%      0.0%      0.0%
 flops    13 x     9 x   128           1126794240     100.0%      0.0%      0.0%
 flops    13 x    13 x     9           1581353280     100.0%      0.0%      0.0%
 flops    13 x    13 x    32          16867768320     100.0%      0.0%      0.0%
 flops    13 x    13 x   137          76227084960     100.0%      0.0%      0.0%
 flops    13 x    13 x   132         102436551360     100.0%      0.0%      0.0%
 flops    13 x    13 x   160         213189849600     100.0%      0.0%      0.0%
 flops    13 x    13 x   128         341103759360     100.0%      0.0%      0.0%
 flops inhomo. stacks                           0       0.0%      0.0%      0.0%
 flops total                       756.389359E+09     100.0%      0.0%      0.0%
 flops max/rank                     51.997329E+09     100.0%      0.0%      0.0%
 matmuls inhomo. stacks                         0       0.0%      0.0%      0.0%
 matmuls total                           18024769     100.0%      0.0%      0.0%
 number of processed stacks                 27289     100.0%      0.0%      0.0%
 average stack size                                   660.5       0.0       0.0
 marketing flops                     2.144049E+12
 -------------------------------------------------------------------------------
 # multiplications                            334
 max memory usage/rank               2.027729E+09
 # max total images/rank                        1
 # max 3D layers                                1
 # MPI messages exchanged                   32064
 MPI messages size (bytes):
  total size                        21.567914E+09
  min size                           0.000000E+00
  max size                         943.360000E+03
  average size                     672.652000E+03
 MPI breakdown and total messages size (bytes):
             size <=      128                2250                        0
       128 < size <=     8192                 150                    97200
      8192 < size <=    32768                   0                        0
     32768 < size <=   131072                 864                 45427392
    131072 < size <=  4194304               28800              21522399840
   4194304 < size <= 16777216                   0                        0
  16777216 < size                               0                        0
 -------------------------------------------------------------------------------
 -                                                                             -
 -                      DBCSR MESSAGE PASSING PERFORMANCE                      -
 -                                                                             -
 -------------------------------------------------------------------------------
 ROUTINE             CALLS      AVE VOLUME [Bytes]
 MP_Bcast               25                     12.
 MP_Allreduce         2410                      8.
 MP_Alltoall          9412                 613390.
 MP_ISend             5344                 260154.
 MP_IRecv             5344                 239301.
 -------------------------------------------------------------------------------

 -------------------------------------------------------------------------------
 -                                                                             -
 -                                DBM STATISTICS                               -
 -                                                                             -
 -------------------------------------------------------------------------------
    M  x    N  x    K                                          COUNT     PERCENT
 -------------------------------------------------------------------------------

 -------------------------------------------------------------------------------
 -                                                                             -
 -                                GRID STATISTICS                              -
 -                                                                             -
 -------------------------------------------------------------------------------
 LP    KERNEL             BACKEND                              COUNT     PERCENT
 4     collocate ortho    REF                               36986584      49.81%
 4     integrate ortho    REF                               36513912      49.17%
 3     collocate ortho    REF                                 361662       0.49%
 3     integrate ortho    REF                                 357084       0.48%
 2     collocate ortho    REF                                  12887       0.02%
 2     integrate ortho    REF                                  12691       0.02%
 0     collocate general  REF                                  10800       0.01%
 -------------------------------------------------------------------------------

 MEMORY| Estimated peak process memory [MiB]                                1934

 -------------------------------------------------------------------------------
 -                                                                             -
 -                         MESSAGE PASSING PERFORMANCE                         -
 -                                                                             -
 -------------------------------------------------------------------------------

 ROUTINE             CALLS      AVE VOLUME [Bytes]
 MP_Group               24
 MP_Bcast              821                1179270.
 MP_Allreduce         4348                   1756.
 MP_Sync               383
 MP_Alltoall          4442               63083642.
 MP_SendRecv         14178                 475468.
 MP_ISendRecv        10020                 444928.
 MP_Wait             24881
 MP_comm_split          25
 MP_ISend            10808                3185166.
 MP_IRecv            10808                3185294.
 MP_Recv               250                 732421.
 -------------------------------------------------------------------------------


 -------------------------------------------------------------------------------
 -                                                                             -
 -                           R E F E R E N C E S                               -
 -                                                                             -
 -------------------------------------------------------------------------------
 
 CP2K version 2023.1, the CP2K developers group (2023).
 CP2K is freely available from https://www.cp2k.org/ .

 Kuehne,Thomas D.; Iannuzzi,Marcella; Del Ben,Mauro;
 Rybkin,Vladimir V.; Seewald,Patrick; Stein,Frederick; Laino,Teodoro;
 Khaliullin,Rustam Z.; Schuett,Ole; Schiffmann,Florian; Golze,Dorothea;
 Wilhelm,Jan; Chulkov,Sergey; Bani-Hashemian,Mohammad Hossein;
 Weber,Valery; Borstnik,Urban; Taillefumier,Mathieu;
 Jakobovits,Alice Shoshana; Lazzaro,Alfio; Pabst,Hans; Mueller,Tiziano;
 Schade,Robert; Guidon,Manuel; Andermatt,Samuel; Holmberg,Nico;
 Schenter,Gregory K.; Hehn,Anna; Bussy,Augustin; Belleflamme,Fabian;
 Tabacchi,Gloria; Gloess,Andreas; Lass,Michael; Bethune,Iain;
 Mundy,Christopher J.; Plessl,Christian; Watkins,Matt;
 VandeVondele,Joost; Krack,Matthias; Hutter,Juerg. 
 The Journal of Chemical Physics, 152 (19), (2020). 
 CP2K: An electronic structure and molecular dynamics software package -
 Quickstep: Efficient and accurate electronic structure calculations.
 https://doi.org/10.1063/5.0007045

 Goerigk, Lars; Hansen, Andreas; Bauer, Christoph; Ehrlich, Stephan;
 Najibi, Asim; Grimme, Stefan. , 19 (48), (2017). 
 A look at the density functional theory zoo with the advanced GMTKN55 database
 for general main group thermochemistry, kinetics and noncovalent interactions.
 https://doi.org/10.1039/C7CP04913G

 Schuett, Ole; Messmer, Peter; Hutter, Juerg; VandeVondele, Joost. 
 Electronic Structure Calculations on Graphics Processing Units, John
 Wiley & Sons, Ltd, 173-190 (2016). 
 GPU-Accelerated Sparse Matrix-Matrix Multiplication for
 Linear Scaling Density Functional Theory.
 https://doi.org/10.1002/9781118670712.ch8

 Borstnik, U; VandeVondele, J; Weber, V; Hutter, J. 
 PARALLEL COMPUTING, 40 (5-6), 47-58 (2014). 
 Sparse matrix multiplication: The distributed block-compressed sparse
 row library.
 https://doi.org/10.1016/j.parco.2014.03.012

 Hutter, J; Iannuzzi, M; Schiffmann, F; VandeVondele, J. 
 WIREs Comput Mol Sci., 4 (1), 15-25 (2014). 
 CP2K: atomistic simulations of condensed matter systems.
 https://doi.org/10.1002/wcms.1159

 Marek, A; Blum, V; Johanni, R; Havu, V; Lang, B; Auckenthaler, T;
 Heinecke, A; Bungartz, H; Lederer, H. 
 Journal of Physics: Condensed Matter, 26 (21), (2014). 
 The ELPA library: scalable parallel eigenvalue solutions for
 electronic structure
 theory and computational science.
 https://doi.org/10.1088/0953-8984/26/21/213201

 Grimme, S; Ehrlich, S; Goerigk, L. 
 JOURNAL OF COMPUTATIONAL CHEMISTRY, 32, 1456 (2011). 
 Effect of the damping function in dispersion corrected density functional theory.
 https://doi.org/10.1002/jcc.21759

 Grimme, S; Antony, J; Ehrlich, S; Krieg, H. 
 JOURNAL OF CHEMICAL PHYSICS, 132 (15), 154104 (2010). 
 A consistent and accurate ab initio parametrization of density
 functional dispersion correction (DFT-D) for the 94 elements H-Pu.
 https://doi.org/10.1063/1.3382344

 VandeVondele, J; Hutter, J. 
 JOURNAL OF CHEMICAL PHYSICS, 127 (11), 114105 (2007). 
 Gaussian basis sets for accurate calculations on molecular systems in
 gas and condensed phases.
 https://doi.org/10.1063/1.2770708

 Krack, M. 
 THEORETICAL CHEMISTRY ACCOUNTS, 114 (1-3), 145-152 (2005). 
 Pseudopotentials for H to Kr optimized for gradient-corrected
 exchange-correlation functionals.
 https://doi.org/10.1007/s00214-005-0655-y

 VandeVondele, J; Krack, M; Mohamed, F; Parrinello, M; Chassaing, T;
 Hutter, J. COMPUTER PHYSICS COMMUNICATIONS, 167 (2), 103-128 (2005). 
 QUICKSTEP: Fast and accurate density functional calculations using a
 mixed Gaussian and plane waves approach.
 https://doi.org/10.1016/j.cpc.2004.12.014

 Frigo, M; Johnson, SG. 
 PROCEEDINGS OF THE IEEE, 93 (2), 216-231 (2005). 
 The design and implementation of FFTW3.
 https://doi.org/10.1109/JPROC.2004.840301

 Hartwigsen, C; Goedecker, S; Hutter, J. 
 PHYSICAL REVIEW B, 58 (7), 3641-3662 (1998). 
 Relativistic separable dual-space Gaussian pseudopotentials from H to Rn.
 https://doi.org/10.1103/PhysRevB.58.3641

 Lippert, G; Hutter, J; Parrinello, M. 
 MOLECULAR PHYSICS, 92 (3), 477-487 (1997). 
 A hybrid Gaussian and plane wave density functional scheme.
 https://doi.org/10.1080/002689797170220

 Perdew, JP; Burke, K; Ernzerhof, M. 
 PHYSICAL REVIEW LETTERS, 77 (18), 3865-3868 (1996). 
 Generalized gradient approximation made simple.
 https://doi.org/10.1103/PhysRevLett.77.3865

 Goedecker, S; Teter, M; Hutter, J. 
 PHYSICAL REVIEW B, 54 (3), 1703-1710 (1996). 
 Separable dual-space Gaussian pseudopotentials.
 https://doi.org/10.1103/PhysRevB.54.1703


 -------------------------------------------------------------------------------
 -                                                                             -
 -                                T I M I N G                                  -
 -                                                                             -
 -------------------------------------------------------------------------------
 SUBROUTINE                       CALLS  ASD         SELF TIME        TOTAL TIME
                                MAXIMUM       AVERAGE  MAXIMUM  AVERAGE  MAXIMUM
 CP2K                                 1  1.0     1.85     1.95 15783.95 15783.95
 qs_energies                          5  2.0     0.00     0.00 15761.56 15761.96
 scf_env_do_scf                       5  3.0     0.00     0.00 15705.37 15705.79
 scf_env_do_scf_inner_loop          334  4.0     0.03     0.06 15705.37 15705.79
 qs_scf_new_mos                     334  5.0     0.02     0.04 11014.34 11016.72
 eigensolver                        334  6.0     0.04     0.06 10648.48 10651.25
 cp_fm_diag_elpa                    309  7.0     0.01     0.01  8052.83  8056.59
 cp_fm_diag_elpa_base               309  8.0  8036.94  8041.58  8044.43  8044.88
 cp_fm_triangular_multiply         1002  7.0  2572.86  2579.58  2572.86  2579.58
 qs_ks_update_qs_env                334  5.0     0.00     0.01  2221.21  2224.66
 rebuild_ks_matrix                  334  6.0     0.00     0.00  2205.70  2208.79
 qs_ks_build_kohn_sham_matrix       334  7.0     0.12     0.15  2205.69  2208.79
 qs_rho_update_rho_low              339  5.0     0.00     0.01  1588.43  1589.71
 calculate_rho_elec                 339  6.0     4.10     4.47  1588.43  1589.71
 sum_up_and_integrate               334  8.0     9.72    10.52  1438.52  1441.66
 integrate_v_rspace                 334  9.0     0.03     0.06  1428.80  1431.13
 density_rs2pw                      339  7.0     0.04     0.11  1238.20  1419.83
 rs_pw_transfer                    2697  9.5     0.07     0.10   997.25  1180.47
 pw_transfer                       4367  8.9     0.69     0.82  1009.42  1023.39
 grid_integrate_task_list           334 10.0   289.92  1005.28   289.92  1005.28
 fft_wrap_pw1pw2                   3699  9.9     0.08     0.13   990.00  1004.41
 grid_collocate_task_list           339  7.0   313.25   988.93   313.25   988.93
 mp_alltoall_d11v                  4711  9.3   785.77   970.46   785.77   970.46
 mp_waitany                       10808 11.5   725.76   910.36   725.76   910.36
 rs_gather_matrices                 334 10.0     0.78     0.97   719.80   905.90
 rs_pw_transfer_RS2PW_150           344  9.0    16.84    18.88   571.51   889.54
 fft_wrap_pw1pw2_150               1680 10.2    76.01    81.49   863.04   883.79
 gspace_mixing                      329  5.0     4.04     4.40   877.54   878.08
 fft3d_ps                          3699 11.9   329.79   348.07   710.89   727.52
 broyden_mixing                     329  6.0   568.97   592.99   678.35   689.76
 rs_pw_transfer_RS2PW_50            339  9.0     3.77     4.55   157.22   569.72
 qs_vxc_create                      334  8.0     0.01     0.03   493.53   501.87
 xc_vxc_pw_create                   334  9.0    10.11    10.77   493.52   501.85
 potential_pw2rs                    334 10.0     0.36     0.48   419.05   420.02
 xc_rho_set_and_dset_create         334 10.0    12.70    13.45   342.99   369.02
 -------------------------------------------------------------------------------

 The number of warnings for this run is : 6
 
 -------------------------------------------------------------------------------
  **** **** ******  **  PROGRAM ENDED AT                 2025-03-19 20:49:15.188
 ***** ** ***  *** **   PROGRAM RAN ON                                sebnode133
 **    ****   ******    PROGRAM RAN BY                                    luehrs
 ***** **    ** ** **   PROGRAM PROCESS ID                               1323063
  **** **  *******  **  PROGRAM STOPPED IN /home/luehrs/PhD/Sodium_batteries/Sod
                                           ium-graphene-curvature/Curved_surface
                                           _concave/Zig-Zag4
