     225
 i =       77, E =     -1320.7086780729
  C         6.7000000000        4.9119900000        5.6821000000
  C        27.3000000000        0.0000000000        1.3438000000
  C         6.0000000000        3.6840000000        5.5387000000
  C         0.0000000000       17.1920000000        3.6394000000
  C        10.3000000000       15.9640100000        5.9973000000
  C         8.8000000000       15.9639900000        5.9570000000
  C        26.6000000000       18.4200100000        1.5130000000
  C        25.2000000000       18.4200000000        1.8902000000
  C        24.5000000000       17.1920100000        2.0972000000
  C        23.2000000000       17.1920000000        2.5109000000
  C        22.5000000000       15.9640100000        2.7472000000
  C        21.2000000000       15.9640000000        3.2047000000
  C        20.5000000000       14.7360100000        3.4576000000
  C        19.2000000000       14.7360000000        3.9299000000
  C        18.5000000000       13.5080100000        4.1810000000
  C        17.2000000000       13.5080000000        4.6301000000
  C        16.5000000000       12.2800100000        4.8575000000
  C        15.1000000000       12.2799900000        5.2684000000
  C        14.5000000000       11.0520100000        5.4223000000
  C        13.1000000000       11.0519900000        5.7185000000
  C        12.4000000000        9.8240100000        5.8297000000
  C        11.0000000000        9.8239900000        5.9701000000
  C        10.3000000000        8.5960000000        5.9973000000
  C         8.8000000000        8.5959900000        5.9570000000
  C         8.1000000000        7.3680000000        5.8927000000
  C         6.7000000000        7.3679900000        5.6821000000
  C         6.0000000000        6.1400000000        5.5387000000
  C         4.7000000000        6.1399900000        5.2139000000
  C         4.0000000000        4.9120000000        5.0117000000
  C         2.6000000000        4.9119900000        4.5630000000
  C         8.1000000000        4.9120000000        5.8927000000
  C        27.3000000000        2.4560000000        1.3438000000
  C        26.6000000000        1.2280100000        1.5130000000
  C        25.2000000000        1.2280000000        1.8902000000
  C        24.5000000000        0.0000100000        2.0972000000
  C        23.2000000000        0.0000000000        2.5109000000
  C         0.6000000000       18.4199900000        3.8574000000
  C         2.0000000000       18.4200000000        4.3570000000
  C         2.0000000000        3.6840000000        4.3570000000
  C         0.6000000000        3.6839900000        3.8574000000
  C         0.0000000000        2.4560000000        3.6394000000
  C         0.0000000000        0.0000000000        3.6394000000
  C         8.1000000000       14.7360000000        5.8927000000
  C         6.7000000000       14.7359900000        5.6821000000
  C         6.0000000000       13.5080000000        5.5387000000
  C         4.7000000000       13.5079900000        5.2139000000
  C         4.0000000000       12.2800000000        5.0117000000
  C         2.6000000000       12.2799900000        4.5630000000
  C        22.5000000000       18.4200100000        2.7472000000
  C        21.2000000000       18.4200000000        3.2047000000
  C        20.5000000000       17.1920100000        3.4576000000
  C        19.2000000000       17.1920000000        3.9299000000
  C        18.5000000000       15.9640100000        4.1810000000
  C        17.2000000000       15.9640000000        4.6301000000
  C        16.5000000000       14.7360100000        4.8575000000
  C        15.1000000000       14.7360000000        5.2684000000
  C        14.5000000000       13.5080100000        5.4223000000
  C        13.1000000000       13.5079900000        5.7185000000
  C        12.4000000000       12.2800100000        5.8297000000
  C        11.0000000000       12.2799900000        5.9701000000
  C         8.8000000000        6.1399900000        5.9570000000
  C        27.3000000000        4.9120000000        1.3438000000
  C        26.6000000000        3.6840100000        1.5130000000
  C        25.2000000000        3.6840000000        1.8902000000
  C        24.5000000000        2.4560100000        2.0972000000
  C        23.2000000000        2.4560000000        2.5109000000
  C        22.5000000000        1.2280100000        2.7472000000
  C        21.2000000000        1.2280000000        3.2047000000
  C        20.5000000000        0.0000100000        3.4576000000
  C        19.2000000000        0.0000000000        3.9299000000
  C         0.0000000000       14.7360000000        3.6394000000
  C         4.7000000000        3.6839900000        5.2139000000
  C        10.3000000000       11.0520100000        5.9973000000
  C         8.8000000000       11.0519900000        5.9570000000
  C         8.1000000000        9.8240000000        5.8927000000
  C         6.7000000000        9.8239900000        5.6821000000
  C         6.0000000000        8.5960000000        5.5387000000
  C         4.7000000000        8.5959900000        5.2139000000
  C         4.0000000000        7.3680000000        5.0117000000
  C         2.6000000000        7.3679900000        4.5630000000
  C         2.0000000000        6.1400000000        4.3570000000
  C         0.6000000000        6.1399900000        3.8574000000
  C         0.0000000000        4.9120000000        3.6394000000
  C         0.6000000000        1.2279900000        3.8574000000
  C         2.0000000000       11.0520000000        4.3570000000
  C         0.6000000000       11.0519900000        3.8574000000
  C         0.0000000000        9.8240000000        3.6394000000
  C         2.6000000000        2.4559900000        4.5630000000
  C         8.1000000000       17.1920000000        5.8927000000
  C         6.7000000000       17.1919900000        5.6821000000
  C        10.3000000000        6.1400000000        5.9973000000
  C        27.3000000000        7.3680000000        1.3438000000
  C        26.6000000000        6.1400100000        1.5130000000
  C        25.2000000000        6.1400000000        1.8902000000
  C        24.5000000000        4.9120100000        2.0972000000
  C        23.2000000000        4.9120000000        2.5109000000
  C        22.5000000000        3.6840100000        2.7472000000
  C        21.2000000000        3.6840000000        3.2047000000
  C        20.5000000000        2.4560100000        3.4576000000
  C        19.2000000000        2.4560000000        3.9299000000
  C        18.5000000000        1.2280100000        4.1810000000
  C        17.2000000000        1.2280000000        4.6301000000
  C        16.5000000000        0.0000100000        4.8575000000
  C        15.1000000000       -0.0000100000        5.2684000000
  C         6.0000000000       18.4200000000        5.5387000000
  C         4.7000000000       18.4199900000        5.2139000000
  C         6.0000000000       15.9640000000        5.5387000000
  C         4.7000000000       15.9639900000        5.2139000000
  C         4.0000000000       14.7360000000        5.0117000000
  C         2.6000000000       14.7359900000        4.5630000000
  C        18.5000000000       18.4200100000        4.1810000000
  C        17.2000000000       18.4200000000        4.6301000000
  C        16.5000000000       17.1920100000        4.8575000000
  C        15.1000000000       17.1920000000        5.2684000000
  C        14.5000000000       15.9640100000        5.4223000000
  C        13.1000000000       15.9639900000        5.7185000000
  C        12.4000000000       14.7360100000        5.8297000000
  C        11.0000000000       14.7359900000        5.9701000000
  C        10.3000000000       13.5080100000        5.9973000000
  C         8.8000000000       13.5079900000        5.9570000000
  C        11.0000000000        7.3679900000        5.9701000000
  C        27.3000000000        9.8240000000        1.3438000000
  C        26.6000000000        8.5960100000        1.5130000000
  C        25.2000000000        8.5960000000        1.8902000000
  C        24.5000000000        7.3680100000        2.0972000000
  C        23.2000000000        7.3680000000        2.5109000000
  C        22.5000000000        6.1400100000        2.7472000000
  C        21.2000000000        6.1400000000        3.2047000000
  C        20.5000000000        4.9120100000        3.4576000000
  C        19.2000000000        4.9120000000        3.9299000000
  C        18.5000000000        3.6840100000        4.1810000000
  C        17.2000000000        3.6840000000        4.6301000000
  C        16.5000000000        2.4560100000        4.8575000000
  C        15.1000000000        2.4559900000        5.2684000000
  C        14.5000000000        1.2280100000        5.4223000000
  C        13.1000000000        1.2279900000        5.7185000000
  C        12.4000000000        0.0000100000        5.8297000000
  C        11.0000000000       -0.0000100000        5.9701000000
  C        10.3000000000       18.4200100000        5.9973000000
  C         8.8000000000       18.4199900000        5.9570000000
  C         8.1000000000       12.2800000000        5.8927000000
  C         6.7000000000       12.2799900000        5.6821000000
  C         6.0000000000       11.0520000000        5.5387000000
  C         4.7000000000       11.0519900000        5.2139000000
  C         4.0000000000        9.8240000000        5.0117000000
  C         2.6000000000        9.8239900000        4.5630000000
  C         2.0000000000        8.5960000000        4.3570000000
  C         0.6000000000        8.5959900000        3.8574000000
  C         0.0000000000        7.3680000000        3.6394000000
  C         2.0000000000        1.2280000000        4.3570000000
  C        12.4000000000        7.3680100000        5.8297000000
  C        27.3000000000       12.2800000000        1.3438000000
  C        26.6000000000       11.0520100000        1.5130000000
  C        25.2000000000       11.0520000000        1.8902000000
  C        24.5000000000        9.8240100000        2.0972000000
  C        23.2000000000        9.8240000000        2.5109000000
  C        22.5000000000        8.5960100000        2.7472000000
  C        21.2000000000        8.5960000000        3.2047000000
  C        20.5000000000        7.3680100000        3.4576000000
  C        19.2000000000        7.3680000000        3.9299000000
  C        18.5000000000        6.1400100000        4.1810000000
  C        17.2000000000        6.1400000000        4.6301000000
  C        16.5000000000        4.9120100000        4.8575000000
  C        15.1000000000        4.9119900000        5.2684000000
  C        14.5000000000        3.6840100000        5.4223000000
  C        13.1000000000        3.6839900000        5.7185000000
  C        12.4000000000        2.4560100000        5.8297000000
  C        11.0000000000        2.4559900000        5.9701000000
  C        10.3000000000        1.2280000000        5.9973000000
  C         8.8000000000        1.2279900000        5.9570000000
  C         8.1000000000        0.0000000000        5.8927000000
  C         6.7000000000       -0.0000100000        5.6821000000
  C        14.5000000000       18.4200100000        5.4223000000
  C        13.1000000000       18.4199900000        5.7185000000
  C         2.0000000000       13.5080000000        4.3570000000
  C         0.6000000000       13.5079900000        3.8574000000
  C         0.0000000000       12.2800000000        3.6394000000
  C         4.0000000000        2.4560000000        5.0117000000
  C         4.0000000000       17.1920000000        5.0117000000
  C         2.6000000000       17.1919900000        4.5630000000
  C        13.1000000000        8.5959900000        5.7185000000
  C        27.3000000000       14.7360000000        1.3438000000
  C        26.6000000000       13.5080100000        1.5130000000
  C        25.2000000000       13.5080000000        1.8902000000
  C        24.5000000000       12.2800100000        2.0972000000
  C        23.2000000000       12.2800000000        2.5109000000
  C        22.5000000000       11.0520100000        2.7472000000
  C        21.2000000000       11.0520000000        3.2047000000
  C        20.5000000000        9.8240100000        3.4576000000
  C        19.2000000000        9.8240000000        3.9299000000
  C        18.5000000000        8.5960100000        4.1810000000
  C        17.2000000000        8.5960000000        4.6301000000
  C        16.5000000000        7.3680100000        4.8575000000
  C        15.1000000000        7.3679900000        5.2684000000
  C        14.5000000000        6.1400100000        5.4223000000
  C        13.1000000000        6.1399900000        5.7185000000
  C        12.4000000000        4.9120100000        5.8297000000
  C        11.0000000000        4.9119900000        5.9701000000
  C        10.3000000000        3.6840000000        5.9973000000
  C         8.8000000000        3.6839900000        5.9570000000
  C         8.1000000000        2.4560000000        5.8927000000
  C         6.7000000000        2.4559900000        5.6821000000
  C         6.0000000000        1.2280000000        5.5387000000
  C         4.7000000000        1.2279900000        5.2139000000
  C         4.0000000000        0.0000000000        5.0117000000
  C         2.6000000000       -0.0000100000        4.5630000000
  C        12.4000000000       17.1920100000        5.8297000000
  C        11.0000000000       17.1919900000        5.9701000000
  C         2.0000000000       15.9640000000        4.3570000000
  C         0.6000000000       15.9639900000        3.8574000000
  C        14.5000000000        8.5960100000        5.4223000000
  C        27.3000000000       17.1920000000        1.3438000000
  C        26.6000000000       15.9640100000        1.5130000000
  C        25.2000000000       15.9640000000        1.8902000000
  C        24.5000000000       14.7360100000        2.0972000000
  C        23.2000000000       14.7360000000        2.5109000000
  C        22.5000000000       13.5080100000        2.7472000000
  C        21.2000000000       13.5080000000        3.2047000000
  C        20.5000000000       12.2800100000        3.4576000000
  C        19.2000000000       12.2800000000        3.9299000000
  C        18.5000000000       11.0520100000        4.1810000000
  C        17.2000000000       11.0520000000        4.6301000000
  C        16.5000000000        9.8240100000        4.8575000000
  C        15.1000000000        9.8239900000        5.2684000000
 Na        12.9168493924        8.9598308576        2.8603710152
