 DBCSR| CPU Multiplication driver                                           BLAS (U)
 DBCSR| Multrec recursion limit                                              512 (U)
 DBCSR| Multiplication stack size                                           1000 (D)
 DBCSR| Maximum elements for images                                    UNLIMITED (U)
 DBCSR| Multiplicative factor virtual images                                   1 (U)
 DBCSR| Use multiplication densification                                       T (D)
 DBCSR| Multiplication size stacks                                             3 (U)
 DBCSR| Use memory pool for CPU allocation                                     F (U)
 DBCSR| Number of 3D layers                                               SINGLE (U)
 DBCSR| Use MPI memory allocation                                              F (U)
 DBCSR| Use RMA algorithm                                                      F (U)
 DBCSR| Use Communication thread                                               T (U)
 DBCSR| Communication thread load                                             87 (D)
 DBCSR| MPI: My process id                                                     0
 DBCSR| MPI: Number of processes                                              16
 DBCSR| OMP: Current number of threads                                         1
 DBCSR| OMP: Max number of threads                                             1
 DBCSR| Split modifier for TAS multiplication algorithm                  1.0E+00 (U)


  **** **** ******  **  PROGRAM STARTED AT               2025-07-10 15:51:02.185
 ***** ** ***  *** **   PROGRAM STARTED ON                            sebnode130
 **    ****   ******    PROGRAM STARTED BY                                luehrs
 ***** **    ** ** **   PROGRAM PROCESS ID                               1120083
  **** **  *******  **  PROGRAM STARTED IN /home/luehrs/PhD/Sodium_batteries/Sod
                                           ium-graphene-curvature/Curved_surface
                                           _concave/Zig-Zag5

 CP2K| version string:                                       CP2K version 2023.1
 CP2K| source code revision number:                                  git:b888bd8
 CP2K| cp2kflags: omp libint fftw3 libxc elpa parallel scalapack spglib         
 CP2K| is freely available from                            https://www.cp2k.org/
 CP2K| Program compiled at                          Tue Jan 10 19:52:03 UTC 2023
 CP2K| Program compiled on                                            x86-ubc-01
 CP2K| Program compiled for                                Linux-x86_64-gfortran
 CP2K| Data directory path                                       /usr/share/cp2k
 CP2K| Input file name                                         input.zig-zag.inp

 GLOBAL| Force Environment number                                              1
 GLOBAL| Basis set file name                                      ./BASIS_MOLOPT
 GLOBAL| Potential file name                                    ./GTH_POTENTIALS
 GLOBAL| MM Potential file name                                     MM_POTENTIAL
 GLOBAL| Coordinate file name                       coords_sur_5_new_relaxed.xyz
 GLOBAL| Method name                                                        CP2K
 GLOBAL| Project name                                        curv_sur_5_new_BSSE
 GLOBAL| Run type                                                           BSSE
 GLOBAL| FFT library                                                       FFTW3
 GLOBAL| Diagonalization library                                            ELPA
 GLOBAL| DGEMM library                                                      BLAS
 GLOBAL| Minimum number of eigenvectors for ELPA usage                        16
 GLOBAL| Orthonormality check for eigenvectors                          DISABLED
 GLOBAL| Matrix multiplication library                                 ScaLAPACK
 GLOBAL| All-to-all communication in single precision                          F
 GLOBAL| FFTs using library dependent lengths                                  F
 GLOBAL| Grid backend                                                       AUTO
 GLOBAL| Global print level                                                  LOW
 GLOBAL| MPI I/O enabled                                                       T
 GLOBAL| Total number of message passing processes                            16
 GLOBAL| Number of threads for this process                                    1
 GLOBAL| This output is from process                                           0
 GLOBAL| Stack size for threads created by OpenMP (OMP_STACKSIZE)        default
 GLOBAL| CPU model name                          AMD EPYC 7513 32-Core Processor

 MEMORY| system memory details [Kb]
 MEMORY|                        rank 0           min           max       average
 MEMORY| MemTotal            131832644     131832644     131832644     131832644
 MEMORY| MemFree              87500552      87500552      87500552      87500552
 MEMORY| Buffers                161688        161688        161688        161688
 MEMORY| Cached                 405348        405344        405348        405344
 MEMORY| Slab                   845056        845056        845056        845056
 MEMORY| SReclaimable           155892        155892        155892        155892
 MEMORY| MemLikelyFree        88223480      88223476      88223480      88223476


 GENERATE|  Preliminary Number of Bonds generated:                             0
 GENERATE|  Achieved consistency in connectivity generation.

 *******************************************************************************
 *******************************************************************************
 **                                                                           **
 **     #####                         ##              ##                      **
 **    ##   ##            ##          ##              ##                      **
 **   ##     ##                       ##            ######                    **
 **   ##     ##  ##   ##  ##   #####  ##  ##   ####   ##    #####    #####    **
 **   ##     ##  ##   ##  ##  ##      ## ##   ##      ##   ##   ##  ##   ##   **
 **   ##  ## ##  ##   ##  ##  ##      ####     ###    ##   ######   ######    **
 **    ##  ###   ##   ##  ##  ##      ## ##      ##   ##   ##       ##        **
 **     #######   #####   ##   #####  ##  ##  ####    ##    #####   ##        **
 **           ##                                                    ##        **
 **                                                                           **
 **                                                ... make the atoms dance   **
 **                                                                           **
 **            Copyright (C) by CP2K developers group (2000-2022)             **
 **                      J. Chem. Phys. 152, 194103 (2020)                    **
 **                                                                           **
 *******************************************************************************


 TOTAL NUMBERS AND MAXIMUM NUMBERS

  Total number of            - Atomic kinds:                                   2
                             - Atoms:                                        225
                             - Shell sets:                                   225
                             - Shells:                                      1125
                             - Primitive Cartesian functions:               1127
                             - Cartesian basis functions:                   3145
                             - Spherical basis functions:                   2921

  Maximum angular momentum of- Orbital basis functions:                        2
                             - Local part of the GTH pseudopotential:          2
                             - Non-local part of the GTH pseudopotential:      1


 SCF PARAMETERS         Density guess:                                    ATOMIC
                        --------------------------------------------------------
                        max_scf:                                             300
                        max_scf_history:                                       0
                        max_diis:                                              4
                        --------------------------------------------------------
                        eps_scf:                                        3.00E-07
                        eps_scf_history:                                0.00E+00
                        eps_diis:                                       1.00E-01
                        eps_eigval:                                     1.00E-05
                        --------------------------------------------------------
                        level_shift [a.u.]:                             0.000000
                        added MOs                                       100    0
                        --------------------------------------------------------
                        Mixing method:                            BROYDEN_MIXING
                                                charge density mixing in g-space
                        --------------------------------------------------------
                        Smear method:                                FERMI_DIRAC
                        Electronic temperature [K]:                        300.0
                        Electronic temperature [a.u.]:                  9.50E-04
                        Accuracy threshold:                             1.00E-10
                        --------------------------------------------------------
                        Outer loop SCF in use 
                        No variables optimised in outer loop
                        eps_scf                                         1.00E-06
                        max_scf                                              300
                        DIIS optimization
                        DIIS buffer length                                     3
                        step_size                                       5.00E-01

 -------------------------------------------------------------------------------
 -                                                                             -
 -  BSSE CALCULATION         FRAGMENT CONF: 10        FRAGMENT SUBCONF: 10     -
 -                           CHARGE =     0           MULTIPLICITY =     0     -
 -                                                                             -
 -                 ATOM INDEX                              ATOM NAME           -
 -                 ----------                              ---------           -
 -                      1                                   C                  -
 -                      2                                   C                  -
 -                      3                                   C                  -
 -                      4                                   C                  -
 -                      5                                   C                  -
 -                      6                                   C                  -
 -                      7                                   C                  -
 -                      8                                   C                  -
 -                      9                                   C                  -
 -                     10                                   C                  -
 -                     11                                   C                  -
 -                     12                                   C                  -
 -                     13                                   C                  -
 -                     14                                   C                  -
 -                     15                                   C                  -
 -                     16                                   C                  -
 -                     17                                   C                  -
 -                     18                                   C                  -
 -                     19                                   C                  -
 -                     20                                   C                  -
 -                     21                                   C                  -
 -                     22                                   C                  -
 -                     23                                   C                  -
 -                     24                                   C                  -
 -                     25                                   C                  -
 -                     26                                   C                  -
 -                     27                                   C                  -
 -                     28                                   C                  -
 -                     29                                   C                  -
 -                     30                                   C                  -
 -                     31                                   C                  -
 -                     32                                   C                  -
 -                     33                                   C                  -
 -                     34                                   C                  -
 -                     35                                   C                  -
 -                     36                                   C                  -
 -                     37                                   C                  -
 -                     38                                   C                  -
 -                     39                                   C                  -
 -                     40                                   C                  -
 -                     41                                   C                  -
 -                     42                                   C                  -
 -                     43                                   C                  -
 -                     44                                   C                  -
 -                     45                                   C                  -
 -                     46                                   C                  -
 -                     47                                   C                  -
 -                     48                                   C                  -
 -                     49                                   C                  -
 -                     50                                   C                  -
 -                     51                                   C                  -
 -                     52                                   C                  -
 -                     53                                   C                  -
 -                     54                                   C                  -
 -                     55                                   C                  -
 -                     56                                   C                  -
 -                     57                                   C                  -
 -                     58                                   C                  -
 -                     59                                   C                  -
 -                     60                                   C                  -
 -                     61                                   C                  -
 -                     62                                   C                  -
 -                     63                                   C                  -
 -                     64                                   C                  -
 -                     65                                   C                  -
 -                     66                                   C                  -
 -                     67                                   C                  -
 -                     68                                   C                  -
 -                     69                                   C                  -
 -                     70                                   C                  -
 -                     71                                   C                  -
 -                     72                                   C                  -
 -                     73                                   C                  -
 -                     74                                   C                  -
 -                     75                                   C                  -
 -                     76                                   C                  -
 -                     77                                   C                  -
 -                     78                                   C                  -
 -                     79                                   C                  -
 -                     80                                   C                  -
 -                     81                                   C                  -
 -                     82                                   C                  -
 -                     83                                   C                  -
 -                     84                                   C                  -
 -                     85                                   C                  -
 -                     86                                   C                  -
 -                     87                                   C                  -
 -                     88                                   C                  -
 -                     89                                   C                  -
 -                     90                                   C                  -
 -                     91                                   C                  -
 -                     92                                   C                  -
 -                     93                                   C                  -
 -                     94                                   C                  -
 -                     95                                   C                  -
 -                     96                                   C                  -
 -                     97                                   C                  -
 -                     98                                   C                  -
 -                     99                                   C                  -
 -                    100                                   C                  -
 -                    101                                   C                  -
 -                    102                                   C                  -
 -                    103                                   C                  -
 -                    104                                   C                  -
 -                    105                                   C                  -
 -                    106                                   C                  -
 -                    107                                   C                  -
 -                    108                                   C                  -
 -                    109                                   C                  -
 -                    110                                   C                  -
 -                    111                                   C                  -
 -                    112                                   C                  -
 -                    113                                   C                  -
 -                    114                                   C                  -
 -                    115                                   C                  -
 -                    116                                   C                  -
 -                    117                                   C                  -
 -                    118                                   C                  -
 -                    119                                   C                  -
 -                    120                                   C                  -
 -                    121                                   C                  -
 -                    122                                   C                  -
 -                    123                                   C                  -
 -                    124                                   C                  -
 -                    125                                   C                  -
 -                    126                                   C                  -
 -                    127                                   C                  -
 -                    128                                   C                  -
 -                    129                                   C                  -
 -                    130                                   C                  -
 -                    131                                   C                  -
 -                    132                                   C                  -
 -                    133                                   C                  -
 -                    134                                   C                  -
 -                    135                                   C                  -
 -                    136                                   C                  -
 -                    137                                   C                  -
 -                    138                                   C                  -
 -                    139                                   C                  -
 -                    140                                   C                  -
 -                    141                                   C                  -
 -                    142                                   C                  -
 -                    143                                   C                  -
 -                    144                                   C                  -
 -                    145                                   C                  -
 -                    146                                   C                  -
 -                    147                                   C                  -
 -                    148                                   C                  -
 -                    149                                   C                  -
 -                    150                                   C                  -
 -                    151                                   C                  -
 -                    152                                   C                  -
 -                    153                                   C                  -
 -                    154                                   C                  -
 -                    155                                   C                  -
 -                    156                                   C                  -
 -                    157                                   C                  -
 -                    158                                   C                  -
 -                    159                                   C                  -
 -                    160                                   C                  -
 -                    161                                   C                  -
 -                    162                                   C                  -
 -                    163                                   C                  -
 -                    164                                   C                  -
 -                    165                                   C                  -
 -                    166                                   C                  -
 -                    167                                   C                  -
 -                    168                                   C                  -
 -                    169                                   C                  -
 -                    170                                   C                  -
 -                    171                                   C                  -
 -                    172                                   C                  -
 -                    173                                   C                  -
 -                    174                                   C                  -
 -                    175                                   C                  -
 -                    176                                   C                  -
 -                    177                                   C                  -
 -                    178                                   C                  -
 -                    179                                   C                  -
 -                    180                                   C                  -
 -                    181                                   C                  -
 -                    182                                   C                  -
 -                    183                                   C                  -
 -                    184                                   C                  -
 -                    185                                   C                  -
 -                    186                                   C                  -
 -                    187                                   C                  -
 -                    188                                   C                  -
 -                    189                                   C                  -
 -                    190                                   C                  -
 -                    191                                   C                  -
 -                    192                                   C                  -
 -                    193                                   C                  -
 -                    194                                   C                  -
 -                    195                                   C                  -
 -                    196                                   C                  -
 -                    197                                   C                  -
 -                    198                                   C                  -
 -                    199                                   C                  -
 -                    200                                   C                  -
 -                    201                                   C                  -
 -                    202                                   C                  -
 -                    203                                   C                  -
 -                    204                                   C                  -
 -                    205                                   C                  -
 -                    206                                   C                  -
 -                    207                                   C                  -
 -                    208                                   C                  -
 -                    209                                   C                  -
 -                    210                                   C                  -
 -                    211                                   C                  -
 -                    212                                   C                  -
 -                    213                                   C                  -
 -                    214                                   C                  -
 -                    215                                   C                  -
 -                    216                                   C                  -
 -                    217                                   C                  -
 -                    218                                   C                  -
 -                    219                                   C                  -
 -                    220                                   C                  -
 -                    221                                   C                  -
 -                    222                                   C                  -
 -                    223                                   C                  -
 -                    224                                   C                  -
 -------------------------------------------------------------------------------

 *******************************************************************************
 *******************************************************************************
 **                                                                           **
 **     #####                         ##              ##                      **
 **    ##   ##            ##          ##              ##                      **
 **   ##     ##                       ##            ######                    **
 **   ##     ##  ##   ##  ##   #####  ##  ##   ####   ##    #####    #####    **
 **   ##     ##  ##   ##  ##  ##      ## ##   ##      ##   ##   ##  ##   ##   **
 **   ##  ## ##  ##   ##  ##  ##      ####     ###    ##   ######   ######    **
 **    ##  ###   ##   ##  ##  ##      ## ##      ##   ##   ##       ##        **
 **     #######   #####   ##   #####  ##  ##  ####    ##    #####   ##        **
 **           ##                                                    ##        **
 **                                                                           **
 **                                                ... make the atoms dance   **
 **                                                                           **
 **            Copyright (C) by CP2K developers group (2000-2022)             **
 **                      J. Chem. Phys. 152, 194103 (2020)                    **
 **                                                                           **
 *******************************************************************************


 TOTAL NUMBERS AND MAXIMUM NUMBERS

  Total number of            - Atomic kinds:                                   1
                             - Atoms:                                        224
                             - Shell sets:                                   224
                             - Shells:                                      1120
                             - Primitive Cartesian functions:               1120
                             - Cartesian basis functions:                   3136
                             - Spherical basis functions:                   2912

  Maximum angular momentum of- Orbital basis functions:                        2
                             - Local part of the GTH pseudopotential:          2
                             - Non-local part of the GTH pseudopotential:      0


 SCF PARAMETERS         Density guess:                                    ATOMIC
                        --------------------------------------------------------
                        max_scf:                                             300
                        max_scf_history:                                       0
                        max_diis:                                              4
                        --------------------------------------------------------
                        eps_scf:                                        3.00E-07
                        eps_scf_history:                                0.00E+00
                        eps_diis:                                       1.00E-01
                        eps_eigval:                                     1.00E-05
                        --------------------------------------------------------
                        level_shift [a.u.]:                             0.000000
                        added MOs                                       100    0
                        --------------------------------------------------------
                        Mixing method:                            BROYDEN_MIXING
                                                charge density mixing in g-space
                        --------------------------------------------------------
                        Smear method:                                FERMI_DIRAC
                        Electronic temperature [K]:                        300.0
                        Electronic temperature [a.u.]:                  9.50E-04
                        Accuracy threshold:                             1.00E-10
                        --------------------------------------------------------
                        Outer loop SCF in use 
                        No variables optimised in outer loop
                        eps_scf                                         1.00E-06
                        max_scf                                              300
                        DIIS optimization
                        DIIS buffer length                                     3
                        step_size                                       5.00E-01

 Number of electrons:                                                        896
 Number of occupied orbitals:                                                448
 Number of molecular orbitals:                                               548

 Number of orbital functions:                                               2912
 Number of independent orbital functions:                                   2912

 Extrapolation method: initial_guess


 SCF WAVEFUNCTION OPTIMIZATION

  Step     Update method      Time    Convergence         Total energy    Change
  ------------------------------------------------------------------------------
     1 NoMix/Diag. 0.10E+00  171.9     0.92855114     -1265.9121593170 -1.27E+03
     2 Broy./Diag. 0.10E+00  179.9     0.26359742     -1214.9946253192  5.09E+01
     3 Broy./Diag. 0.10E+00  184.2     0.05096028     -1222.9896793010 -8.00E+00
     4 Broy./Diag. 0.10E+00  176.1     0.14876035     -1255.9815089556 -3.30E+01
     5 Broy./Diag. 0.10E+00  176.4     0.12768495     -1269.1463072012 -1.32E+01
     6 Broy./Diag. 0.10E+00  186.8     0.08359928     -1270.0244906654 -8.78E-01
     7 Broy./Diag. 0.10E+00  181.9     0.03847276     -1270.7394853252 -7.15E-01
     8 Broy./Diag. 0.10E+00  144.0     0.01198564     -1271.6819603260 -9.42E-01
     9 Broy./Diag. 0.10E+00  194.8     0.00957597     -1272.1601729733 -4.78E-01
    10 Broy./Diag. 0.10E+00  173.1     0.01314543     -1272.5780135346 -4.18E-01
    11 Broy./Diag. 0.10E+00  156.4     0.00493302     -1272.7193181844 -1.41E-01
    12 Broy./Diag. 0.10E+00  183.0     0.00268577     -1273.0271956956 -3.08E-01
    13 Broy./Diag. 0.10E+00  167.3     0.00263463     -1273.2837986134 -2.57E-01
    14 Broy./Diag. 0.10E+00  189.2     0.00419732     -1273.4127999922 -1.29E-01
    15 Broy./Diag. 0.10E+00  191.5     0.00080185     -1273.4914809819 -7.87E-02
    16 Broy./Diag. 0.10E+00  159.3     0.00112930     -1273.4707109507  2.08E-02
    17 Broy./Diag. 0.10E+00  191.3     0.00233761     -1273.4555839786  1.51E-02
    18 Broy./Diag. 0.10E+00  165.9     0.00194279     -1273.5099943536 -5.44E-02
    19 Broy./Diag. 0.10E+00  176.2     0.00209133     -1273.5338882392 -2.39E-02
    20 Broy./Diag. 0.10E+00  186.9     0.00134366     -1273.5544980328 -2.06E-02
    21 Broy./Diag. 0.10E+00  182.2     0.00047129     -1273.5869961959 -3.25E-02
    22 Broy./Diag. 0.10E+00  205.5     0.00019771     -1273.6195103200 -3.25E-02
    23 Broy./Diag. 0.10E+00  196.2     0.00014060     -1273.6458137838 -2.63E-02
    24 Broy./Diag. 0.10E+00  192.6     0.00033124     -1273.6471084954 -1.29E-03
    25 Broy./Diag. 0.10E+00  192.3     0.00019573     -1273.6427937975  4.31E-03
    26 Broy./Diag. 0.10E+00  187.4     0.00020272     -1273.6368986807  5.90E-03
    27 Broy./Diag. 0.10E+00  185.2     0.00028741     -1273.6284236983  8.47E-03
    28 Broy./Diag. 0.10E+00  184.0     0.00033089     -1273.6272934629  1.13E-03
    29 Broy./Diag. 0.10E+00  185.6     0.00055854     -1273.6366635973 -9.37E-03
    30 Broy./Diag. 0.10E+00  198.6     0.00048188     -1273.6435977444 -6.93E-03
    31 Broy./Diag. 0.10E+00  177.3     0.00015325     -1273.6463051775 -2.71E-03
    32 Broy./Diag. 0.10E+00  170.7     0.00017303     -1273.6449244047  1.38E-03
    33 Broy./Diag. 0.10E+00  188.8     0.00014330     -1273.6435634387  1.36E-03
    34 Broy./Diag. 0.10E+00  183.2     0.00009674     -1273.6415868684  1.98E-03
    35 Broy./Diag. 0.10E+00  178.1     0.00014743     -1273.6439586183 -2.37E-03
    36 Broy./Diag. 0.10E+00  201.9     0.00020370     -1273.6459831582 -2.02E-03
    37 Broy./Diag. 0.10E+00  164.8     0.00009722     -1273.6488357099 -2.85E-03
    38 Broy./Diag. 0.10E+00  181.2     0.00002377     -1273.6511731862 -2.34E-03
    39 Broy./Diag. 0.10E+00  208.5     0.00009044     -1273.6525682280 -1.40E-03
    40 Broy./Diag. 0.10E+00  187.0     0.00010735     -1273.6544350585 -1.87E-03
    41 Broy./Diag. 0.10E+00  179.1     0.00004590     -1273.6554015567 -9.66E-04
    42 Broy./Diag. 0.10E+00  199.6     0.00005335     -1273.6569120628 -1.51E-03
    43 Broy./Diag. 0.10E+00  188.7     0.00004781     -1273.6583973213 -1.49E-03
    44 Broy./Diag. 0.10E+00  175.7     0.00001419     -1273.6588563239 -4.59E-04
    45 Broy./Diag. 0.10E+00  177.4     0.00001349     -1273.6587209794  1.35E-04
    46 Broy./Diag. 0.10E+00  200.0     0.00004057     -1273.6581500713  5.71E-04
    47 Broy./Diag. 0.10E+00  190.5     0.00003752     -1273.6573857175  7.64E-04
    48 Broy./Diag. 0.10E+00  197.0     0.00001692     -1273.6568065292  5.79E-04
    49 Broy./Diag. 0.10E+00  192.2     0.00001059     -1273.6565780075  2.29E-04
    50 Broy./Diag. 0.10E+00  179.9     0.00001318     -1273.6564513041  1.27E-04
    51 Broy./Diag. 0.10E+00  176.9     0.00001933     -1273.6563118595  1.39E-04
    52 Broy./Diag. 0.10E+00  191.5     0.00001586     -1273.6563322507 -2.04E-05
    53 Broy./Diag. 0.10E+00  183.1     0.00001590     -1273.6564232868 -9.10E-05
    54 Broy./Diag. 0.10E+00  168.4     0.00001031     -1273.6567227652 -2.99E-04
    55 Broy./Diag. 0.10E+00  175.0     0.00000458     -1273.6570550338 -3.32E-04
    56 Broy./Diag. 0.10E+00  155.2     0.00000833     -1273.6573083452 -2.53E-04
    57 Broy./Diag. 0.10E+00  205.0     0.00000873     -1273.6575237164 -2.15E-04
    58 Broy./Diag. 0.10E+00  172.6     0.00000484     -1273.6576601005 -1.36E-04
    59 Broy./Diag. 0.10E+00  181.0     0.00000201     -1273.6576960670 -3.60E-05
    60 Broy./Diag. 0.10E+00  169.0     0.00000407     -1273.6576918435  4.22E-06
    61 Broy./Diag. 0.10E+00  183.5     0.00000453     -1273.6576470758  4.48E-05
    62 Broy./Diag. 0.10E+00  190.5     0.00000300     -1273.6576183995  2.87E-05
    63 Broy./Diag. 0.10E+00  168.5     0.00000238     -1273.6575978393  2.06E-05
    64 Broy./Diag. 0.10E+00  199.5     0.00000200     -1273.6575509466  4.69E-05
    65 Broy./Diag. 0.10E+00  203.1     0.00000102     -1273.6575146247  3.63E-05
    66 Broy./Diag. 0.10E+00  191.4     0.00000210     -1273.6574806647  3.40E-05
    67 Broy./Diag. 0.10E+00  214.0     0.00000259     -1273.6574566839  2.40E-05
    68 Broy./Diag. 0.10E+00  178.9     0.00000212     -1273.6574611365 -4.45E-06
    69 Broy./Diag. 0.10E+00  193.6     0.00000155     -1273.6575033562 -4.22E-05
    70 Broy./Diag. 0.10E+00  188.2     0.00000156     -1273.6575427982 -3.94E-05
    71 Broy./Diag. 0.10E+00  200.0     0.00000127     -1273.6575676944 -2.49E-05
    72 Broy./Diag. 0.10E+00  197.7     0.00000073     -1273.6575829749 -1.53E-05
    73 Broy./Diag. 0.10E+00  188.8     0.00000085     -1273.6575853230 -2.35E-06
    74 Broy./Diag. 0.10E+00  178.9     0.00000063     -1273.6575947149 -9.39E-06
    75 Broy./Diag. 0.10E+00  186.7     0.00000025     -1273.6575994268 -4.71E-06

  *** SCF run converged in    75 steps ***


  Electronic density on regular grids:       -896.0000000000        0.0000000000
  Core density on regular grids:              895.9999999992       -0.0000000008
  Total charge density on r-space grids:       -0.0000000007
  Total charge density g-space grids:          -0.0000000007

  Overlap energy of the core charge distribution:               0.00005632564276
  Self energy of the core charge distribution:              -2987.04177559540722
  Core Hamiltonian energy:                                    937.74498371287325
  Hartree energy:                                            1167.03334637293665
  Exchange-correlation energy:                               -391.12778182923921
  Dispersion energy:                                           -0.25986067328793
  Electronic entropic energy:                                  -0.00656773959893
  Fermi energy:                                                -0.15103835500878

  Total energy:                                             -1273.65759942676164

  outer SCF iter =    1 RMS gradient =   0.25E-06 energy =      -1273.6575994268
  outer SCF loop converged in   1 iterations or   75 steps


 *** WARNING in qs_loc_utils.F:1500 :: User requested the calculation of ***
 *** the localized wavefunction but the section LOCALIZE was not         ***
 *** specified. Localization will not be performed!                      ***


 -------------------------------------------------------------------------------
 -                                                                             -
 -  BSSE CALCULATION         FRAGMENT CONF: 01        FRAGMENT SUBCONF: 01     -
 -                           CHARGE =     0           MULTIPLICITY =     0     -
 -                                                                             -
 -                 ATOM INDEX                              ATOM NAME           -
 -                 ----------                              ---------           -
 -                    225                                   Na                 -
 -------------------------------------------------------------------------------

 *******************************************************************************
 *******************************************************************************
 **                                                                           **
 **     #####                         ##              ##                      **
 **    ##   ##            ##          ##              ##                      **
 **   ##     ##                       ##            ######                    **
 **   ##     ##  ##   ##  ##   #####  ##  ##   ####   ##    #####    #####    **
 **   ##     ##  ##   ##  ##  ##      ## ##   ##      ##   ##   ##  ##   ##   **
 **   ##  ## ##  ##   ##  ##  ##      ####     ###    ##   ######   ######    **
 **    ##  ###   ##   ##  ##  ##      ## ##      ##   ##   ##       ##        **
 **     #######   #####   ##   #####  ##  ##  ####    ##    #####   ##        **
 **           ##                                                    ##        **
 **                                                                           **
 **                                                ... make the atoms dance   **
 **                                                                           **
 **            Copyright (C) by CP2K developers group (2000-2022)             **
 **                      J. Chem. Phys. 152, 194103 (2020)                    **
 **                                                                           **
 *******************************************************************************

 *** WARNING in qs_environment.F:1486 :: More added MOs requested than     ***
 *** available. The full set of unoccupied MOs will be used. Use           ***
 *** 'ADDED_MOS -1' to always use all available MOs and to get rid of this ***
 *** warning.                                                              ***



 TOTAL NUMBERS AND MAXIMUM NUMBERS

  Total number of            - Atomic kinds:                                   1
                             - Atoms:                                          1
                             - Shell sets:                                     1
                             - Shells:                                         5
                             - Primitive Cartesian functions:                  7
                             - Cartesian basis functions:                      9
                             - Spherical basis functions:                      9

  Maximum angular momentum of- Orbital basis functions:                        1
                             - Local part of the GTH pseudopotential:          2
                             - Non-local part of the GTH pseudopotential:      1


 SCF PARAMETERS         Density guess:                                    ATOMIC
                        --------------------------------------------------------
                        max_scf:                                             300
                        max_scf_history:                                       0
                        max_diis:                                              4
                        --------------------------------------------------------
                        eps_scf:                                        3.00E-07
                        eps_scf_history:                                0.00E+00
                        eps_diis:                                       1.00E-01
                        eps_eigval:                                     1.00E-05
                        --------------------------------------------------------
                        level_shift [a.u.]:                             0.000000
                        added MOs                                         4    0
                        --------------------------------------------------------
                        Mixing method:                            BROYDEN_MIXING
                                                charge density mixing in g-space
                        --------------------------------------------------------
                        Smear method:                                FERMI_DIRAC
                        Electronic temperature [K]:                        300.0
                        Electronic temperature [a.u.]:                  9.50E-04
                        Accuracy threshold:                             1.00E-10
                        --------------------------------------------------------
                        Outer loop SCF in use 
                        No variables optimised in outer loop
                        eps_scf                                         1.00E-06
                        max_scf                                              300
                        DIIS optimization
                        DIIS buffer length                                     3
                        step_size                                       5.00E-01

 Number of electrons:                                                          9
 Number of occupied orbitals:                                                  5
 Number of molecular orbitals:                                                 9

 Number of orbital functions:                                                  9
 Number of independent orbital functions:                                      9

 Extrapolation method: initial_guess


 SCF WAVEFUNCTION OPTIMIZATION

  Step     Update method      Time    Convergence         Total energy    Change
  ------------------------------------------------------------------------------
     1 NoMix/Diag. 0.10E+00    7.0     0.02077825       -47.1632547230 -4.72E+01
     2 Broy./Diag. 0.10E+00   10.3     0.00009672       -47.1203867815  4.29E-02
     3 Broy./Diag. 0.10E+00   11.9     0.00099681       -47.1612552334 -4.09E-02
     4 Broy./Diag. 0.10E+00   11.2     0.00002400       -47.1689235273 -7.67E-03
     5 Broy./Diag. 0.10E+00   11.0     0.00025247       -47.1689601241 -3.66E-05
     6 Broy./Diag. 0.10E+00   10.2     0.00000809       -47.1690838713 -1.24E-04
     7 Broy./Diag. 0.10E+00   11.4     0.00014091       -47.1674023920  1.68E-03
     8 Broy./Diag. 0.10E+00   12.0     0.00001764       -47.1664549958  9.47E-04
     9 Broy./Diag. 0.10E+00   10.9     0.00018660       -47.1658011335  6.54E-04
    10 Broy./Diag. 0.10E+00   14.2     0.00000972       -47.1654152480  3.86E-04
    11 Broy./Diag. 0.10E+00   13.0     0.00009319       -47.1652106704  2.05E-04
    12 Broy./Diag. 0.10E+00   12.4     0.00000301       -47.1651482928  6.24E-05
    13 Broy./Diag. 0.10E+00   13.1     0.00000819       -47.1652446611 -9.64E-05
    14 Broy./Diag. 0.10E+00   12.0     0.00000082       -47.1652617640 -1.71E-05
    15 Broy./Diag. 0.10E+00   12.0     0.00001233       -47.1651003310  1.61E-04
    16 Broy./Diag. 0.10E+00   12.3     0.00000255       -47.1650714126  2.89E-05
    17 Broy./Diag. 0.10E+00   12.7     0.00000272       -47.1651085383 -3.71E-05
    18 Broy./Diag. 0.10E+00    8.8     0.00000204       -47.1651501945 -4.17E-05
    19 Broy./Diag. 0.10E+00   12.1     0.00000145       -47.1651684031 -1.82E-05
    20 Broy./Diag. 0.10E+00   11.8     0.00000261       -47.1651642838  4.12E-06
    21 Broy./Diag. 0.10E+00   12.7     0.00000267       -47.1651433026  2.10E-05
    22 Broy./Diag. 0.10E+00   12.6     0.00000453       -47.1651123716  3.09E-05
    23 Broy./Diag. 0.10E+00   12.4     0.00000312       -47.1650919122  2.05E-05
    24 Broy./Diag. 0.10E+00   11.9     0.00000121       -47.1650897464  2.17E-06
    25 Broy./Diag. 0.10E+00   12.2     0.00000028       -47.1650976363 -7.89E-06

  *** SCF run converged in    25 steps ***


  Electronic density on regular grids:         -9.0003206270       -0.0003206270
  Core density on regular grids:                9.0000000000       -0.0000000000
  Total charge density on r-space grids:       -0.0003206270
  Total charge density g-space grids:          -0.0003206270

  Overlap energy of the core charge distribution:               0.00000000000000
  Self energy of the core charge distribution:                -96.60649019442629
  Core Hamiltonian energy:                                     29.76189238610177
  Hartree energy:                                              26.72516764180511
  Exchange-correlation energy:                                 -7.04434979324437
  Dispersion energy:                                           -0.00000063510881
  Electronic entropic energy:                                  -0.00131704147593
  Fermi energy:                                                -0.09176743675771

  Total energy:                                               -47.16509763634851

  outer SCF iter =    1 RMS gradient =   0.28E-06 energy =        -47.1650976363
  outer SCF loop converged in   1 iterations or   25 steps


 *** WARNING in qs_loc_utils.F:1500 :: User requested the calculation of ***
 *** the localized wavefunction but the section LOCALIZE was not         ***
 *** specified. Localization will not be performed!                      ***


 -------------------------------------------------------------------------------
 -                                                                             -
 -  BSSE CALCULATION         FRAGMENT CONF: 11        FRAGMENT SUBCONF: 10     -
 -                           CHARGE =     0           MULTIPLICITY =     0     -
 -                                                                             -
 -                 ATOM INDEX                              ATOM NAME           -
 -                 ----------                              ---------           -
 -                      1                                   C                  -
 -                      2                                   C                  -
 -                      3                                   C                  -
 -                      4                                   C                  -
 -                      5                                   C                  -
 -                      6                                   C                  -
 -                      7                                   C                  -
 -                      8                                   C                  -
 -                      9                                   C                  -
 -                     10                                   C                  -
 -                     11                                   C                  -
 -                     12                                   C                  -
 -                     13                                   C                  -
 -                     14                                   C                  -
 -                     15                                   C                  -
 -                     16                                   C                  -
 -                     17                                   C                  -
 -                     18                                   C                  -
 -                     19                                   C                  -
 -                     20                                   C                  -
 -                     21                                   C                  -
 -                     22                                   C                  -
 -                     23                                   C                  -
 -                     24                                   C                  -
 -                     25                                   C                  -
 -                     26                                   C                  -
 -                     27                                   C                  -
 -                     28                                   C                  -
 -                     29                                   C                  -
 -                     30                                   C                  -
 -                     31                                   C                  -
 -                     32                                   C                  -
 -                     33                                   C                  -
 -                     34                                   C                  -
 -                     35                                   C                  -
 -                     36                                   C                  -
 -                     37                                   C                  -
 -                     38                                   C                  -
 -                     39                                   C                  -
 -                     40                                   C                  -
 -                     41                                   C                  -
 -                     42                                   C                  -
 -                     43                                   C                  -
 -                     44                                   C                  -
 -                     45                                   C                  -
 -                     46                                   C                  -
 -                     47                                   C                  -
 -                     48                                   C                  -
 -                     49                                   C                  -
 -                     50                                   C                  -
 -                     51                                   C                  -
 -                     52                                   C                  -
 -                     53                                   C                  -
 -                     54                                   C                  -
 -                     55                                   C                  -
 -                     56                                   C                  -
 -                     57                                   C                  -
 -                     58                                   C                  -
 -                     59                                   C                  -
 -                     60                                   C                  -
 -                     61                                   C                  -
 -                     62                                   C                  -
 -                     63                                   C                  -
 -                     64                                   C                  -
 -                     65                                   C                  -
 -                     66                                   C                  -
 -                     67                                   C                  -
 -                     68                                   C                  -
 -                     69                                   C                  -
 -                     70                                   C                  -
 -                     71                                   C                  -
 -                     72                                   C                  -
 -                     73                                   C                  -
 -                     74                                   C                  -
 -                     75                                   C                  -
 -                     76                                   C                  -
 -                     77                                   C                  -
 -                     78                                   C                  -
 -                     79                                   C                  -
 -                     80                                   C                  -
 -                     81                                   C                  -
 -                     82                                   C                  -
 -                     83                                   C                  -
 -                     84                                   C                  -
 -                     85                                   C                  -
 -                     86                                   C                  -
 -                     87                                   C                  -
 -                     88                                   C                  -
 -                     89                                   C                  -
 -                     90                                   C                  -
 -                     91                                   C                  -
 -                     92                                   C                  -
 -                     93                                   C                  -
 -                     94                                   C                  -
 -                     95                                   C                  -
 -                     96                                   C                  -
 -                     97                                   C                  -
 -                     98                                   C                  -
 -                     99                                   C                  -
 -                    100                                   C                  -
 -                    101                                   C                  -
 -                    102                                   C                  -
 -                    103                                   C                  -
 -                    104                                   C                  -
 -                    105                                   C                  -
 -                    106                                   C                  -
 -                    107                                   C                  -
 -                    108                                   C                  -
 -                    109                                   C                  -
 -                    110                                   C                  -
 -                    111                                   C                  -
 -                    112                                   C                  -
 -                    113                                   C                  -
 -                    114                                   C                  -
 -                    115                                   C                  -
 -                    116                                   C                  -
 -                    117                                   C                  -
 -                    118                                   C                  -
 -                    119                                   C                  -
 -                    120                                   C                  -
 -                    121                                   C                  -
 -                    122                                   C                  -
 -                    123                                   C                  -
 -                    124                                   C                  -
 -                    125                                   C                  -
 -                    126                                   C                  -
 -                    127                                   C                  -
 -                    128                                   C                  -
 -                    129                                   C                  -
 -                    130                                   C                  -
 -                    131                                   C                  -
 -                    132                                   C                  -
 -                    133                                   C                  -
 -                    134                                   C                  -
 -                    135                                   C                  -
 -                    136                                   C                  -
 -                    137                                   C                  -
 -                    138                                   C                  -
 -                    139                                   C                  -
 -                    140                                   C                  -
 -                    141                                   C                  -
 -                    142                                   C                  -
 -                    143                                   C                  -
 -                    144                                   C                  -
 -                    145                                   C                  -
 -                    146                                   C                  -
 -                    147                                   C                  -
 -                    148                                   C                  -
 -                    149                                   C                  -
 -                    150                                   C                  -
 -                    151                                   C                  -
 -                    152                                   C                  -
 -                    153                                   C                  -
 -                    154                                   C                  -
 -                    155                                   C                  -
 -                    156                                   C                  -
 -                    157                                   C                  -
 -                    158                                   C                  -
 -                    159                                   C                  -
 -                    160                                   C                  -
 -                    161                                   C                  -
 -                    162                                   C                  -
 -                    163                                   C                  -
 -                    164                                   C                  -
 -                    165                                   C                  -
 -                    166                                   C                  -
 -                    167                                   C                  -
 -                    168                                   C                  -
 -                    169                                   C                  -
 -                    170                                   C                  -
 -                    171                                   C                  -
 -                    172                                   C                  -
 -                    173                                   C                  -
 -                    174                                   C                  -
 -                    175                                   C                  -
 -                    176                                   C                  -
 -                    177                                   C                  -
 -                    178                                   C                  -
 -                    179                                   C                  -
 -                    180                                   C                  -
 -                    181                                   C                  -
 -                    182                                   C                  -
 -                    183                                   C                  -
 -                    184                                   C                  -
 -                    185                                   C                  -
 -                    186                                   C                  -
 -                    187                                   C                  -
 -                    188                                   C                  -
 -                    189                                   C                  -
 -                    190                                   C                  -
 -                    191                                   C                  -
 -                    192                                   C                  -
 -                    193                                   C                  -
 -                    194                                   C                  -
 -                    195                                   C                  -
 -                    196                                   C                  -
 -                    197                                   C                  -
 -                    198                                   C                  -
 -                    199                                   C                  -
 -                    200                                   C                  -
 -                    201                                   C                  -
 -                    202                                   C                  -
 -                    203                                   C                  -
 -                    204                                   C                  -
 -                    205                                   C                  -
 -                    206                                   C                  -
 -                    207                                   C                  -
 -                    208                                   C                  -
 -                    209                                   C                  -
 -                    210                                   C                  -
 -                    211                                   C                  -
 -                    212                                   C                  -
 -                    213                                   C                  -
 -                    214                                   C                  -
 -                    215                                   C                  -
 -                    216                                   C                  -
 -                    217                                   C                  -
 -                    218                                   C                  -
 -                    219                                   C                  -
 -                    220                                   C                  -
 -                    221                                   C                  -
 -                    222                                   C                  -
 -                    223                                   C                  -
 -                    224                                   C                  -
 -                    225                                   Na_ghost           -
 -------------------------------------------------------------------------------

 *******************************************************************************
 *******************************************************************************
 **                                                                           **
 **     #####                         ##              ##                      **
 **    ##   ##            ##          ##              ##                      **
 **   ##     ##                       ##            ######                    **
 **   ##     ##  ##   ##  ##   #####  ##  ##   ####   ##    #####    #####    **
 **   ##     ##  ##   ##  ##  ##      ## ##   ##      ##   ##   ##  ##   ##   **
 **   ##  ## ##  ##   ##  ##  ##      ####     ###    ##   ######   ######    **
 **    ##  ###   ##   ##  ##  ##      ## ##      ##   ##   ##       ##        **
 **     #######   #####   ##   #####  ##  ##  ####    ##    #####   ##        **
 **           ##                                                    ##        **
 **                                                                           **
 **                                                ... make the atoms dance   **
 **                                                                           **
 **            Copyright (C) by CP2K developers group (2000-2022)             **
 **                      J. Chem. Phys. 152, 194103 (2020)                    **
 **                                                                           **
 *******************************************************************************


 TOTAL NUMBERS AND MAXIMUM NUMBERS

  Total number of            - Atomic kinds:                                   2
                             - Atoms:                                        225
                             - Shell sets:                                   225
                             - Shells:                                      1125
                             - Primitive Cartesian functions:               1127
                             - Cartesian basis functions:                   3145
                             - Spherical basis functions:                   2921

  Maximum angular momentum of- Orbital basis functions:                        2
                             - Local part of the GTH pseudopotential:          2
                             - Non-local part of the GTH pseudopotential:      0


 SCF PARAMETERS         Density guess:                                    ATOMIC
                        --------------------------------------------------------
                        max_scf:                                             300
                        max_scf_history:                                       0
                        max_diis:                                              4
                        --------------------------------------------------------
                        eps_scf:                                        3.00E-07
                        eps_scf_history:                                0.00E+00
                        eps_diis:                                       1.00E-01
                        eps_eigval:                                     1.00E-05
                        --------------------------------------------------------
                        level_shift [a.u.]:                             0.000000
                        added MOs                                       100    0
                        --------------------------------------------------------
                        Mixing method:                            BROYDEN_MIXING
                                                charge density mixing in g-space
                        --------------------------------------------------------
                        Smear method:                                FERMI_DIRAC
                        Electronic temperature [K]:                        300.0
                        Electronic temperature [a.u.]:                  9.50E-04
                        Accuracy threshold:                             1.00E-10
                        --------------------------------------------------------
                        Outer loop SCF in use 
                        No variables optimised in outer loop
                        eps_scf                                         1.00E-06
                        max_scf                                              300
                        DIIS optimization
                        DIIS buffer length                                     3
                        step_size                                       5.00E-01

 Number of electrons:                                                        896
 Number of occupied orbitals:                                                448
 Number of molecular orbitals:                                               548

 Number of orbital functions:                                               2921
 Number of independent orbital functions:                                   2921

 Extrapolation method: initial_guess


 SCF WAVEFUNCTION OPTIMIZATION

  Step     Update method      Time    Convergence         Total energy    Change
  ------------------------------------------------------------------------------
     1 NoMix/Diag. 0.10E+00  184.9     0.92878946     -1265.9121593170 -1.27E+03
     2 Broy./Diag. 0.10E+00  179.1     0.26359771     -1214.9856226432  5.09E+01
     3 Broy./Diag. 0.10E+00  173.7     0.05097066     -1222.9807373830 -8.00E+00
     4 Broy./Diag. 0.10E+00  196.2     0.14871508     -1255.9722213687 -3.30E+01
     5 Broy./Diag. 0.10E+00  160.3     0.12764683     -1269.1413466074 -1.32E+01
     6 Broy./Diag. 0.10E+00  175.5     0.08363537     -1270.0197227055 -8.78E-01
     7 Broy./Diag. 0.10E+00  180.1     0.03850769     -1270.7352901488 -7.16E-01
     8 Broy./Diag. 0.10E+00  166.3     0.01198191     -1271.6787368564 -9.43E-01
     9 Broy./Diag. 0.10E+00  197.1     0.00957972     -1272.1575195923 -4.79E-01
    10 Broy./Diag. 0.10E+00  196.1     0.01318218     -1272.5762249755 -4.19E-01
    11 Broy./Diag. 0.10E+00  184.6     0.00506387     -1272.7178885735 -1.42E-01
    12 Broy./Diag. 0.10E+00  167.1     0.00269971     -1273.0262611161 -3.08E-01
    13 Broy./Diag. 0.10E+00  164.6     0.00352639     -1273.2827978625 -2.57E-01
    14 Broy./Diag. 0.10E+00  172.3     0.00533214     -1273.3988398759 -1.16E-01
    15 Broy./Diag. 0.10E+00  181.5     0.00636782     -1273.4863548856 -8.75E-02
    16 Broy./Diag. 0.10E+00  184.9     0.00195517     -1273.4984714048 -1.21E-02
    17 Broy./Diag. 0.10E+00  182.2     0.00139365     -1273.4430959863  5.54E-02
    18 Broy./Diag. 0.10E+00  167.2     0.00150593     -1273.4439452408 -8.49E-04
    19 Broy./Diag. 0.10E+00  176.2     0.00071882     -1273.4766542069 -3.27E-02
    20 Broy./Diag. 0.10E+00  176.7     0.00067075     -1273.5015533014 -2.49E-02
    21 Broy./Diag. 0.10E+00  177.7     0.00093103     -1273.5283334149 -2.68E-02
    22 Broy./Diag. 0.10E+00  181.3     0.00043982     -1273.5773898527 -4.91E-02
    23 Broy./Diag. 0.10E+00  175.2     0.00074672     -1273.6050926635 -2.77E-02
    24 Broy./Diag. 0.10E+00  163.9     0.00087571     -1273.6193914295 -1.43E-02
    25 Broy./Diag. 0.10E+00  182.7     0.00068862     -1273.6445855537 -2.52E-02
    26 Broy./Diag. 0.10E+00  195.4     0.00063932     -1273.6684965170 -2.39E-02
    27 Broy./Diag. 0.10E+00  196.6     0.00059678     -1273.6686381092 -1.42E-04
    28 Broy./Diag. 0.10E+00  193.1     0.00075380     -1273.6633359805  5.30E-03
    29 Broy./Diag. 0.10E+00  189.7     0.00077259     -1273.6529483114  1.04E-02
    30 Broy./Diag. 0.10E+00  186.1     0.00016332     -1273.6511914998  1.76E-03
    31 Broy./Diag. 0.10E+00  176.9     0.00003272     -1273.6497310167  1.46E-03
    32 Broy./Diag. 0.10E+00  185.5     0.00004618     -1273.6415982203  8.13E-03
    33 Broy./Diag. 0.10E+00  199.3     0.00005008     -1273.6412425150  3.56E-04
    34 Broy./Diag. 0.10E+00  193.4     0.00004855     -1273.6460978021 -4.86E-03
    35 Broy./Diag. 0.10E+00  174.3     0.00011700     -1273.6526255571 -6.53E-03
    36 Broy./Diag. 0.10E+00  191.3     0.00011798     -1273.6560754847 -3.45E-03
    37 Broy./Diag. 0.10E+00  191.8     0.00006806     -1273.6573664222 -1.29E-03
    38 Broy./Diag. 0.10E+00  181.8     0.00008719     -1273.6572148459  1.52E-04
    39 Broy./Diag. 0.10E+00  192.6     0.00005753     -1273.6569650190  2.50E-04
    40 Broy./Diag. 0.10E+00  200.5     0.00005678     -1273.6574620448 -4.97E-04
    41 Broy./Diag. 0.10E+00  207.5     0.00006413     -1273.6577552349 -2.93E-04
    42 Broy./Diag. 0.10E+00  203.9     0.00006574     -1273.6579975637 -2.42E-04
    43 Broy./Diag. 0.10E+00  199.7     0.00005290     -1273.6580009418 -3.38E-06
    44 Broy./Diag. 0.10E+00  203.6     0.00003093     -1273.6577022158  2.99E-04
    45 Broy./Diag. 0.10E+00  196.0     0.00004539     -1273.6570009049  7.01E-04
    46 Broy./Diag. 0.10E+00  197.7     0.00002997     -1273.6562635581  7.37E-04
    47 Broy./Diag. 0.10E+00  190.6     0.00002581     -1273.6564550780 -1.92E-04
    48 Broy./Diag. 0.10E+00  175.4     0.00002579     -1273.6567860316 -3.31E-04
    49 Broy./Diag. 0.10E+00  180.2     0.00001841     -1273.6569996791 -2.14E-04
    50 Broy./Diag. 0.10E+00  183.6     0.00001211     -1273.6570089140 -9.23E-06
    51 Broy./Diag. 0.10E+00  205.2     0.00001096     -1273.6569903515  1.86E-05
    52 Broy./Diag. 0.10E+00  182.4     0.00001087     -1273.6570319259 -4.16E-05
[...]
    84 Broy./Diag. 0.10E+00   45.8     0.00000752     -1320.8622679042 -1.92E-05
    85 Broy./Diag. 0.10E+00   52.6     0.00000525     -1320.8622676336  2.71E-07
    86 Broy./Diag. 0.10E+00   50.6     0.00000156     -1320.8622609142  6.72E-06
    87 Broy./Diag. 0.10E+00   47.2     0.00000118     -1320.8622568455  4.07E-06
    88 Broy./Diag. 0.10E+00   47.2     0.00000183     -1320.8622534021  3.44E-06
    89 Broy./Diag. 0.10E+00   50.1     0.00000046     -1320.8622466789  6.72E-06
    90 Broy./Diag. 0.10E+00   45.9     0.00000125     -1320.8622403437  6.34E-06
    91 Broy./Diag. 0.10E+00   47.0     0.00000097     -1320.8622358013  4.54E-06
    92 Broy./Diag. 0.10E+00   49.4     0.00000066     -1320.8622356031  1.98E-07
    93 Broy./Diag. 0.10E+00   47.9     0.00000064     -1320.8622357379 -1.35E-07
    94 Broy./Diag. 0.10E+00   46.2     0.00000271     -1320.8622368677 -1.13E-06
    95 Broy./Diag. 0.10E+00   49.3     0.00000061     -1320.8622417572 -4.89E-06
    96 Broy./Diag. 0.10E+00   47.6     0.00000097     -1320.8622453363 -3.58E-06
    97 Broy./Diag. 0.10E+00   33.3     0.00000073     -1320.8622486220 -3.29E-06
    98 Broy./Diag. 0.10E+00   15.4     0.00000065     -1320.8622511449 -2.52E-06
    99 Broy./Diag. 0.10E+00   15.9     0.00000017     -1320.8622555129 -4.37E-06

  *** SCF run converged in    99 steps ***


  Electronic density on regular grids:       -905.0003220281       -0.0003220281
  Core density on regular grids:              904.9999999992       -0.0000000008
  Total charge density on r-space grids:       -0.0003220289
  Total charge density g-space grids:          -0.0003220289

  Overlap energy of the core charge distribution:               0.00005632564276
  Self energy of the core charge distribution:              -3083.64826578983366
  Core Hamiltonian energy:                                    967.85153084119008
  Hartree energy:                                            1193.61082075358831
  Exchange-correlation energy:                               -398.40354564130666
  Dispersion energy:                                           -0.26490172568026
  Electronic entropic energy:                                  -0.00795027851234
  Fermi energy:                                                -0.14162721189674

  Total energy:                                             -1320.86225551294524

  outer SCF iter =    1 RMS gradient =   0.17E-06 energy =      -1320.8622555129
  outer SCF loop converged in   1 iterations or   99 steps


 *** WARNING in qs_loc_utils.F:1500 :: User requested the calculation of ***
 *** the localized wavefunction but the section LOCALIZE was not         ***
 *** specified. Localization will not be performed!                      ***


 -------------------------------------------------------------------------------
 -                                                                             -
 -                                 BSSE RESULTS                                -
 -                                                                             -
 -                 CP-corrected Total energy:    -1320.860735                  -
 -                                                                             -
 -                       1-body contribution:    -1273.657599                  -
 -                       1-body contribution:      -47.165098                  -
 -                                                                             -
 -                       2-body contribution:       -0.038037                  -
 -                 BSSE-free interaction energy:       -0.038037               -
 -------------------------------------------------------------------------------

 -------------------------------------------------------------------------------
 -                                                                             -
 -                                DBCSR STATISTICS                             -
 -                                                                             -
 -------------------------------------------------------------------------------
 COUNTER                                    TOTAL       BLAS       SMM       ACC
 flops     9 x     9 x     9                93312     100.0%      0.0%      0.0%
 flops     9 x     9 x    32               606528     100.0%      0.0%      0.0%
 flops     9 x     9 x   132              2031480     100.0%      0.0%      0.0%
 flops     9 x     9 x   137              2197206     100.0%      0.0%      0.0%
 flops     9 x     9 x   160              5028480     100.0%      0.0%      0.0%
 flops     9 x     9 x   128              8045568     100.0%      0.0%      0.0%
 flops     9 x    13 x     9              8213400     100.0%      0.0%      0.0%
 flops    13 x     9 x     9              8706204     100.0%      0.0%      0.0%
 flops     9 x    13 x    32             87609600     100.0%      0.0%      0.0%
 flops    13 x     9 x    32             92866176     100.0%      0.0%      0.0%
 flops     9 x    13 x   132            293436000     100.0%      0.0%      0.0%
 flops    13 x     9 x   132            311042160     100.0%      0.0%      0.0%
 flops     9 x    13 x   137            317374200     100.0%      0.0%      0.0%
 flops    13 x     9 x   137            336416652     100.0%      0.0%      0.0%
 flops     9 x    13 x   160            726336000     100.0%      0.0%      0.0%
 flops    13 x     9 x   160            769916160     100.0%      0.0%      0.0%
 flops     9 x    13 x   128           1162137600     100.0%      0.0%      0.0%
 flops    13 x     9 x   128           1231865856     100.0%      0.0%      0.0%
 flops    13 x    13 x     9           1713132720     100.0%      0.0%      0.0%
 flops    13 x    13 x    32          18273415680     100.0%      0.0%      0.0%
 flops    13 x    13 x   137          66197205360     100.0%      0.0%      0.0%
 flops    13 x    13 x   132         109523356800     100.0%      0.0%      0.0%
 flops    13 x    13 x   160         210066188800     100.0%      0.0%      0.0%
 flops    13 x    13 x   128         336105902080     100.0%      0.0%      0.0%
 flops inhomo. stacks                           0       0.0%      0.0%      0.0%
 flops total                       747.243124E+09     100.0%      0.0%      0.0%
 flops max/rank                     51.331502E+09     100.0%      0.0%      0.0%
 matmuls inhomo. stacks                         0       0.0%      0.0%      0.0%
 matmuls total                           17983029     100.0%      0.0%      0.0%
 number of processed stacks                 27193     100.0%      0.0%      0.0%
 average stack size                                   661.3       0.0       0.0
 marketing flops                     2.113007E+12
 -------------------------------------------------------------------------------
 # multiplications                            333
 max memory usage/rank               2.031669E+09
 # max total images/rank                        1
 # max 3D layers                                1
 # MPI messages exchanged                   31968
 MPI messages size (bytes):
  total size                        21.294232E+09
  min size                           0.000000E+00
  max size                         943.360000E+03
  average size                     666.110875E+03
 MPI breakdown and total messages size (bytes):
             size <=      128                2250                        0
       128 < size <=     8192                 150                    97200
      8192 < size <=    32768                   0                        0
     32768 < size <=   131072                 936                 49213008
    131072 < size <=  4194304               28632              21244928208
   4194304 < size <= 16777216                   0                        0
  16777216 < size                               0                        0
 -------------------------------------------------------------------------------
 -                                                                             -
 -                      DBCSR MESSAGE PASSING PERFORMANCE                      -
 -                                                                             -
 -------------------------------------------------------------------------------
 ROUTINE             CALLS      AVE VOLUME [Bytes]
 MP_Bcast               25                     12.
 MP_Allreduce         2403                      8.
 MP_Alltoall          9384                 611951.
 MP_ISend             5328                 257712.
 MP_IRecv             5328                 236927.
 -------------------------------------------------------------------------------

 -------------------------------------------------------------------------------
 -                                                                             -
 -                                DBM STATISTICS                               -
 -                                                                             -
 -------------------------------------------------------------------------------
    M  x    N  x    K                                          COUNT     PERCENT
 -------------------------------------------------------------------------------

 -------------------------------------------------------------------------------
 -                                                                             -
 -                                GRID STATISTICS                              -
 -                                                                             -
 -------------------------------------------------------------------------------
 LP    KERNEL             BACKEND                              COUNT     PERCENT
 4     collocate ortho    REF                               36868416      49.83%
 4     integrate ortho    REF                               36395744      49.19%
 3     collocate ortho    REF                                 345504       0.47%
 3     integrate ortho    REF                                 341112       0.46%
 2     collocate ortho    REF                                  12838       0.02%
 2     integrate ortho    REF                                  12642       0.02%
 0     collocate general  REF                                  10800       0.01%
 -------------------------------------------------------------------------------

 MEMORY| Estimated peak process memory [MiB]                                1938

 -------------------------------------------------------------------------------
 -                                                                             -
 -                         MESSAGE PASSING PERFORMANCE                         -
 -                                                                             -
 -------------------------------------------------------------------------------

 ROUTINE             CALLS      AVE VOLUME [Bytes]
 MP_Group               24
 MP_Bcast              819                1182150.
 MP_Allreduce         4337                   1761.
 MP_Sync               382
 MP_Alltoall          4429               63076989.
 MP_SendRecv         14136                 475467.
 MP_ISendRecv         9990                 444928.
 MP_Wait             24807
 MP_comm_split          25
 MP_ISend            10776                3185108.
 MP_IRecv            10776                3185237.
 MP_Recv               234                 731371.
 -------------------------------------------------------------------------------


 -------------------------------------------------------------------------------
 -                                                                             -
 -                           R E F E R E N C E S                               -
 -                                                                             -
 -------------------------------------------------------------------------------
 
 CP2K version 2023.1, the CP2K developers group (2023).
 CP2K is freely available from https://www.cp2k.org/ .

 Kuehne,Thomas D.; Iannuzzi,Marcella; Del Ben,Mauro;
 Rybkin,Vladimir V.; Seewald,Patrick; Stein,Frederick; Laino,Teodoro;
 Khaliullin,Rustam Z.; Schuett,Ole; Schiffmann,Florian; Golze,Dorothea;
 Wilhelm,Jan; Chulkov,Sergey; Bani-Hashemian,Mohammad Hossein;
 Weber,Valery; Borstnik,Urban; Taillefumier,Mathieu;
 Jakobovits,Alice Shoshana; Lazzaro,Alfio; Pabst,Hans; Mueller,Tiziano;
 Schade,Robert; Guidon,Manuel; Andermatt,Samuel; Holmberg,Nico;
 Schenter,Gregory K.; Hehn,Anna; Bussy,Augustin; Belleflamme,Fabian;
 Tabacchi,Gloria; Gloess,Andreas; Lass,Michael; Bethune,Iain;
 Mundy,Christopher J.; Plessl,Christian; Watkins,Matt;
 VandeVondele,Joost; Krack,Matthias; Hutter,Juerg. 
 The Journal of Chemical Physics, 152 (19), (2020). 
 CP2K: An electronic structure and molecular dynamics software package -
 Quickstep: Efficient and accurate electronic structure calculations.
 https://doi.org/10.1063/5.0007045

 Goerigk, Lars; Hansen, Andreas; Bauer, Christoph; Ehrlich, Stephan;
 Najibi, Asim; Grimme, Stefan. , 19 (48), (2017). 
 A look at the density functional theory zoo with the advanced GMTKN55 database
 for general main group thermochemistry, kinetics and noncovalent interactions.
 https://doi.org/10.1039/C7CP04913G

 Schuett, Ole; Messmer, Peter; Hutter, Juerg; VandeVondele, Joost. 
 Electronic Structure Calculations on Graphics Processing Units, John
 Wiley & Sons, Ltd, 173-190 (2016). 
 GPU-Accelerated Sparse Matrix-Matrix Multiplication for
 Linear Scaling Density Functional Theory.
 https://doi.org/10.1002/9781118670712.ch8

 Borstnik, U; VandeVondele, J; Weber, V; Hutter, J. 
 PARALLEL COMPUTING, 40 (5-6), 47-58 (2014). 
 Sparse matrix multiplication: The distributed block-compressed sparse
 row library.
 https://doi.org/10.1016/j.parco.2014.03.012

 Hutter, J; Iannuzzi, M; Schiffmann, F; VandeVondele, J. 
 WIREs Comput Mol Sci., 4 (1), 15-25 (2014). 
 CP2K: atomistic simulations of condensed matter systems.
 https://doi.org/10.1002/wcms.1159

 Marek, A; Blum, V; Johanni, R; Havu, V; Lang, B; Auckenthaler, T;
 Heinecke, A; Bungartz, H; Lederer, H. 
 Journal of Physics: Condensed Matter, 26 (21), (2014). 
 The ELPA library: scalable parallel eigenvalue solutions for
 electronic structure
 theory and computational science.
 https://doi.org/10.1088/0953-8984/26/21/213201

 Grimme, S; Ehrlich, S; Goerigk, L. 
 JOURNAL OF COMPUTATIONAL CHEMISTRY, 32, 1456 (2011). 
 Effect of the damping function in dispersion corrected density functional theory.
 https://doi.org/10.1002/jcc.21759

 Grimme, S; Antony, J; Ehrlich, S; Krieg, H. 
 JOURNAL OF CHEMICAL PHYSICS, 132 (15), 154104 (2010). 
 A consistent and accurate ab initio parametrization of density
 functional dispersion correction (DFT-D) for the 94 elements H-Pu.
 https://doi.org/10.1063/1.3382344

 VandeVondele, J; Hutter, J. 
 JOURNAL OF CHEMICAL PHYSICS, 127 (11), 114105 (2007). 
 Gaussian basis sets for accurate calculations on molecular systems in
 gas and condensed phases.
 https://doi.org/10.1063/1.2770708

 Krack, M. 
 THEORETICAL CHEMISTRY ACCOUNTS, 114 (1-3), 145-152 (2005). 
 Pseudopotentials for H to Kr optimized for gradient-corrected
 exchange-correlation functionals.
 https://doi.org/10.1007/s00214-005-0655-y

 VandeVondele, J; Krack, M; Mohamed, F; Parrinello, M; Chassaing, T;
 Hutter, J. COMPUTER PHYSICS COMMUNICATIONS, 167 (2), 103-128 (2005). 
 QUICKSTEP: Fast and accurate density functional calculations using a
 mixed Gaussian and plane waves approach.
 https://doi.org/10.1016/j.cpc.2004.12.014

 Frigo, M; Johnson, SG. 
 PROCEEDINGS OF THE IEEE, 93 (2), 216-231 (2005). 
 The design and implementation of FFTW3.
 https://doi.org/10.1109/JPROC.2004.840301

 Hartwigsen, C; Goedecker, S; Hutter, J. 
 PHYSICAL REVIEW B, 58 (7), 3641-3662 (1998). 
 Relativistic separable dual-space Gaussian pseudopotentials from H to Rn.
 https://doi.org/10.1103/PhysRevB.58.3641

 Lippert, G; Hutter, J; Parrinello, M. 
 MOLECULAR PHYSICS, 92 (3), 477-487 (1997). 
 A hybrid Gaussian and plane wave density functional scheme.
 https://doi.org/10.1080/002689797170220

 Perdew, JP; Burke, K; Ernzerhof, M. 
 PHYSICAL REVIEW LETTERS, 77 (18), 3865-3868 (1996). 
 Generalized gradient approximation made simple.
 https://doi.org/10.1103/PhysRevLett.77.3865

 Goedecker, S; Teter, M; Hutter, J. 
 PHYSICAL REVIEW B, 54 (3), 1703-1710 (1996). 
 Separable dual-space Gaussian pseudopotentials.
 https://doi.org/10.1103/PhysRevB.54.1703


 -------------------------------------------------------------------------------
 -                                                                             -
 -                                T I M I N G                                  -
 -                                                                             -
 -------------------------------------------------------------------------------
 SUBROUTINE                       CALLS  ASD         SELF TIME        TOTAL TIME
                                MAXIMUM       AVERAGE  MAXIMUM  AVERAGE  MAXIMUM
 CP2K                                 1  1.0     3.69     3.81 39935.17 39935.18
 qs_energies                          5  2.0     0.00     0.00 39895.48 39895.88
 scf_env_do_scf                       5  3.0     0.00     0.02 39805.37 39805.82
 scf_env_do_scf_inner_loop          333  4.0     0.02     0.04 39805.37 39805.82
 qs_scf_new_mos                     333  5.0     0.01     0.06 34937.40 34939.20
 eigensolver                        333  6.0     0.04     0.06 34438.15 34442.05
 cp_fm_diag_elpa                    308  7.0     0.01     0.01 31090.76 31096.78
 cp_fm_diag_elpa_base               308  8.0 31070.13 31075.70 31077.99 31078.53
 cp_fm_triangular_multiply          999  7.0  3292.93  3302.92  3292.93  3302.92
 qs_ks_update_qs_env                333  5.0     0.00     0.00  2313.74  2317.55
 rebuild_ks_matrix                  333  6.0     0.00     0.00  2296.40  2300.17
 qs_ks_build_kohn_sham_matrix       333  7.0     0.10     0.13  2296.40  2300.16
 qs_rho_update_rho_low              338  5.0     0.00     0.00  1799.80  1801.28
 calculate_rho_elec                 338  6.0     5.03     5.33  1799.80  1801.28
 density_rs2pw                      338  7.0     0.05     0.09  1413.79  1623.36
 sum_up_and_integrate               333  8.0     7.20     8.26  1529.56  1533.28
 integrate_v_rspace                 333  9.0     0.02     0.03  1522.36  1526.34
 rs_pw_transfer                    2689  9.5     0.07     0.10  1258.79  1466.89
 grid_collocate_task_list           338  7.0   352.81  1097.16   352.81  1097.16
 grid_integrate_task_list           333 10.0   309.48  1045.32   309.48  1045.32
 mp_alltoall_d11v                  4697  9.3   835.94  1036.02   835.94  1036.02
 mp_waitany                       10776 11.5   805.86  1012.27   805.86  1012.27
 rs_pw_transfer_RS2PW_150           343  9.0    17.33    19.57   634.36   997.26
 rs_gather_matrices                 333 10.0     0.56     0.76   748.73   948.73
 pw_transfer                       4354  8.9     0.73     0.86   939.20   948.22
 fft_wrap_pw1pw2                   3688  9.9     0.10     0.15   924.55   933.25
 fft_wrap_pw1pw2_150               1675 10.2    68.76    73.12   811.95   822.77
 -------------------------------------------------------------------------------

 The number of warnings for this run is : 6
 
 -------------------------------------------------------------------------------
  **** **** ******  **  PROGRAM ENDED AT                 2025-07-11 02:56:38.322
 ***** ** ***  *** **   PROGRAM RAN ON                                sebnode130
 **    ****   ******    PROGRAM RAN BY                                    luehrs
 ***** **    ** ** **   PROGRAM PROCESS ID                               1120083
  **** **  *******  **  PROGRAM STOPPED IN /home/luehrs/PhD/Sodium_batteries/Sod
                                           ium-graphene-curvature/Curved_surface
                                           _concave/Zig-Zag5
