 DBCSR| CPU Multiplication driver                                           BLAS (U)
 DBCSR| Multrec recursion limit                                              512 (U)
 DBCSR| Multiplication stack size                                           1000 (D)
 DBCSR| Maximum elements for images                                    UNLIMITED (U)
 DBCSR| Multiplicative factor virtual images                                   1 (U)
 DBCSR| Use multiplication densification                                       T (D)
 DBCSR| Multiplication size stacks                                             3 (U)
 DBCSR| Use memory pool for CPU allocation                                     F (U)
 DBCSR| Number of 3D layers                                               SINGLE (U)
 DBCSR| Use MPI memory allocation                                              F (U)
 DBCSR| Use RMA algorithm                                                      F (U)
 DBCSR| Use Communication thread                                               T (U)
 DBCSR| Communication thread load                                             87 (D)
 DBCSR| MPI: My process id                                                     0
 DBCSR| MPI: Number of processes                                              16
 DBCSR| OMP: Current number of threads                                         1
 DBCSR| OMP: Max number of threads                                             1
 DBCSR| Split modifier for TAS multiplication algorithm                  1.0E+00 (U)


  **** **** ******  **  PROGRAM STARTED AT               2025-06-22 15:39:07.393
 ***** ** ***  *** **   PROGRAM STARTED ON                            sebnode129
 **    ****   ******    PROGRAM STARTED BY                                luehrs
 ***** **    ** ** **   PROGRAM PROCESS ID                               1826072
  **** **  *******  **  PROGRAM STARTED IN /home/luehrs/PhD/Sodium_batteries/Sod
                                           ium-graphene-curvature/Sinus_surface2
                                           /Sinus2

 CP2K| version string:                                       CP2K version 2023.1
 CP2K| source code revision number:                                  git:b888bd8
 CP2K| cp2kflags: omp libint fftw3 libxc elpa parallel scalapack spglib         
 CP2K| is freely available from                            https://www.cp2k.org/
 CP2K| Program compiled at                          Tue Jan 10 19:52:03 UTC 2023
 CP2K| Program compiled on                                            x86-ubc-01
 CP2K| Program compiled for                                Linux-x86_64-gfortran
 CP2K| Data directory path                                       /usr/share/cp2k
 CP2K| Input file name                                        input.zig-zag1.inp

 GLOBAL| Force Environment number                                              1
 GLOBAL| Basis set file name                                      ./BASIS_MOLOPT
 GLOBAL| Potential file name                                    ./GTH_POTENTIALS
 GLOBAL| MM Potential file name                                     MM_POTENTIAL
 GLOBAL| Coordinate file name                               sinus2_2_relaxed.xyz
 GLOBAL| Method name                                                        CP2K
 GLOBAL| Project name                                graphene_sinus2_Sodium_BSSE
 GLOBAL| Run type                                                           BSSE
 GLOBAL| FFT library                                                       FFTW3
 GLOBAL| Diagonalization library                                            ELPA
 GLOBAL| DGEMM library                                                      BLAS
 GLOBAL| Minimum number of eigenvectors for ELPA usage                        16
 GLOBAL| Orthonormality check for eigenvectors                          DISABLED
 GLOBAL| Matrix multiplication library                                 ScaLAPACK
 GLOBAL| All-to-all communication in single precision                          F
 GLOBAL| FFTs using library dependent lengths                                  F
 GLOBAL| Grid backend                                                       AUTO
 GLOBAL| Global print level                                                  LOW
 GLOBAL| MPI I/O enabled                                                       T
 GLOBAL| Total number of message passing processes                            16
 GLOBAL| Number of threads for this process                                    1
 GLOBAL| This output is from process                                           0
 GLOBAL| Stack size for threads created by OpenMP (OMP_STACKSIZE)        default
 GLOBAL| CPU model name                          AMD EPYC 7513 32-Core Processor

 MEMORY| system memory details [Kb]
 MEMORY|                        rank 0           min           max       average
 MEMORY| MemTotal            131832300     131832300     131832300     131832300
 MEMORY| MemFree             122576284     122519584     122627692     122589451
 MEMORY| Buffers                310468        310468        310468        310468
 MEMORY| Cached                1138124       1138124       1138264       1138141
 MEMORY| Slab                   854460        854460        854500        854465
 MEMORY| SReclaimable           195024        195024        195056        195028
 MEMORY| MemLikelyFree       124219900     124163372     124271308     124233088


 GENERATE|  Preliminary Number of Bonds generated:                             0
 GENERATE|  Achieved consistency in connectivity generation.

 *******************************************************************************
 *******************************************************************************
 **                                                                           **
 **     #####                         ##              ##                      **
 **    ##   ##            ##          ##              ##                      **
 **   ##     ##                       ##            ######                    **
 **   ##     ##  ##   ##  ##   #####  ##  ##   ####   ##    #####    #####    **
 **   ##     ##  ##   ##  ##  ##      ## ##   ##      ##   ##   ##  ##   ##   **
 **   ##  ## ##  ##   ##  ##  ##      ####     ###    ##   ######   ######    **
 **    ##  ###   ##   ##  ##  ##      ## ##      ##   ##   ##       ##        **
 **     #######   #####   ##   #####  ##  ##  ####    ##    #####   ##        **
 **           ##                                                    ##        **
 **                                                                           **
 **                                                ... make the atoms dance   **
 **                                                                           **
 **            Copyright (C) by CP2K developers group (2000-2022)             **
 **                      J. Chem. Phys. 152, 194103 (2020)                    **
 **                                                                           **
 *******************************************************************************


 TOTAL NUMBERS AND MAXIMUM NUMBERS

  Total number of            - Atomic kinds:                                   2
                             - Atoms:                                        193
                             - Shell sets:                                   193
                             - Shells:                                       965
                             - Primitive Cartesian functions:                967
                             - Cartesian basis functions:                   2697
                             - Spherical basis functions:                   2505

  Maximum angular momentum of- Orbital basis functions:                        2
                             - Local part of the GTH pseudopotential:          2
                             - Non-local part of the GTH pseudopotential:      1


 SCF PARAMETERS         Density guess:                                    ATOMIC
                        --------------------------------------------------------
                        max_scf:                                             300
                        max_scf_history:                                       0
                        max_diis:                                              4
                        --------------------------------------------------------
                        eps_scf:                                        3.00E-07
                        eps_scf_history:                                0.00E+00
                        eps_diis:                                       1.00E-01
                        eps_eigval:                                     1.00E-05
                        --------------------------------------------------------
                        level_shift [a.u.]:                             0.000000
                        added MOs                                       100    0
                        --------------------------------------------------------
                        Mixing method:                            BROYDEN_MIXING
                                                charge density mixing in g-space
                        --------------------------------------------------------
                        Smear method:                                FERMI_DIRAC
                        Electronic temperature [K]:                        300.0
                        Electronic temperature [a.u.]:                  9.50E-04
                        Accuracy threshold:                             1.00E-10
                        --------------------------------------------------------
                        Outer loop SCF in use 
                        No variables optimised in outer loop
                        eps_scf                                         1.00E-06
                        max_scf                                              300
                        DIIS optimization
                        DIIS buffer length                                     3
                        step_size                                       5.00E-01

 -------------------------------------------------------------------------------
 -                                                                             -
 -  BSSE CALCULATION         FRAGMENT CONF: 10        FRAGMENT SUBCONF: 10     -
 -                           CHARGE =     0           MULTIPLICITY =     0     -
 -                                                                             -
 -                 ATOM INDEX                              ATOM NAME           -
 -                 ----------                              ---------           -
 -                      1                                   C                  -
 -                      2                                   C                  -
 -                      3                                   C                  -
 -                      4                                   C                  -
 -                      5                                   C                  -
 -                      6                                   C                  -
 -                      7                                   C                  -
 -                      8                                   C                  -
 -                      9                                   C                  -
 -                     10                                   C                  -
 -                     11                                   C                  -
 -                     12                                   C                  -
 -                     13                                   C                  -
 -                     14                                   C                  -
 -                     15                                   C                  -
 -                     16                                   C                  -
 -                     17                                   C                  -
 -                     18                                   C                  -
 -                     19                                   C                  -
 -                     20                                   C                  -
 -                     21                                   C                  -
 -                     22                                   C                  -
 -                     23                                   C                  -
 -                     24                                   C                  -
 -                     25                                   C                  -
 -                     26                                   C                  -
 -                     27                                   C                  -
 -                     28                                   C                  -
 -                     29                                   C                  -
 -                     30                                   C                  -
 -                     31                                   C                  -
 -                     32                                   C                  -
 -                     33                                   C                  -
 -                     34                                   C                  -
 -                     35                                   C                  -
 -                     36                                   C                  -
 -                     37                                   C                  -
 -                     38                                   C                  -
 -                     39                                   C                  -
 -                     40                                   C                  -
 -                     41                                   C                  -
 -                     42                                   C                  -
 -                     43                                   C                  -
 -                     44                                   C                  -
 -                     45                                   C                  -
 -                     46                                   C                  -
 -                     47                                   C                  -
 -                     48                                   C                  -
 -                     49                                   C                  -
 -                     50                                   C                  -
 -                     51                                   C                  -
 -                     52                                   C                  -
 -                     53                                   C                  -
 -                     54                                   C                  -
 -                     55                                   C                  -
 -                     56                                   C                  -
 -                     57                                   C                  -
 -                     58                                   C                  -
 -                     59                                   C                  -
 -                     60                                   C                  -
 -                     61                                   C                  -
 -                     62                                   C                  -
 -                     63                                   C                  -
 -                     64                                   C                  -
 -                     65                                   C                  -
 -                     66                                   C                  -
 -                     67                                   C                  -
 -                     68                                   C                  -
 -                     69                                   C                  -
 -                     70                                   C                  -
 -                     71                                   C                  -
 -                     72                                   C                  -
 -                     73                                   C                  -
 -                     74                                   C                  -
 -                     75                                   C                  -
 -                     76                                   C                  -
 -                     77                                   C                  -
 -                     78                                   C                  -
 -                     79                                   C                  -
 -                     80                                   C                  -
 -                     81                                   C                  -
 -                     82                                   C                  -
 -                     83                                   C                  -
 -                     84                                   C                  -
 -                     85                                   C                  -
 -                     86                                   C                  -
 -                     87                                   C                  -
 -                     88                                   C                  -
 -                     89                                   C                  -
 -                     90                                   C                  -
 -                     91                                   C                  -
 -                     92                                   C                  -
 -                     93                                   C                  -
 -                     94                                   C                  -
 -                     95                                   C                  -
 -                     96                                   C                  -
 -                     97                                   C                  -
 -                     98                                   C                  -
 -                     99                                   C                  -
 -                    100                                   C                  -
 -                    101                                   C                  -
 -                    102                                   C                  -
 -                    103                                   C                  -
 -                    104                                   C                  -
 -                    105                                   C                  -
 -                    106                                   C                  -
 -                    107                                   C                  -
 -                    108                                   C                  -
 -                    109                                   C                  -
 -                    110                                   C                  -
 -                    111                                   C                  -
 -                    112                                   C                  -
 -                    113                                   C                  -
 -                    114                                   C                  -
 -                    115                                   C                  -
 -                    116                                   C                  -
 -                    117                                   C                  -
 -                    118                                   C                  -
 -                    119                                   C                  -
 -                    120                                   C                  -
 -                    121                                   C                  -
 -                    122                                   C                  -
 -                    123                                   C                  -
 -                    124                                   C                  -
 -                    125                                   C                  -
 -                    126                                   C                  -
 -                    127                                   C                  -
 -                    128                                   C                  -
 -                    129                                   C                  -
 -                    130                                   C                  -
 -                    131                                   C                  -
 -                    132                                   C                  -
 -                    133                                   C                  -
 -                    134                                   C                  -
 -                    135                                   C                  -
 -                    136                                   C                  -
 -                    137                                   C                  -
 -                    138                                   C                  -
 -                    139                                   C                  -
 -                    140                                   C                  -
 -                    141                                   C                  -
 -                    142                                   C                  -
 -                    143                                   C                  -
 -                    144                                   C                  -
 -                    145                                   C                  -
 -                    146                                   C                  -
 -                    147                                   C                  -
 -                    148                                   C                  -
 -                    149                                   C                  -
 -                    150                                   C                  -
 -                    151                                   C                  -
 -                    152                                   C                  -
 -                    153                                   C                  -
 -                    154                                   C                  -
 -                    155                                   C                  -
 -                    156                                   C                  -
 -                    157                                   C                  -
 -                    158                                   C                  -
 -                    159                                   C                  -
 -                    160                                   C                  -
 -                    161                                   C                  -
 -                    162                                   C                  -
 -                    163                                   C                  -
 -                    164                                   C                  -
 -                    165                                   C                  -
 -                    166                                   C                  -
 -                    167                                   C                  -
 -                    168                                   C                  -
 -                    169                                   C                  -
 -                    170                                   C                  -
 -                    171                                   C                  -
 -                    172                                   C                  -
 -                    173                                   C                  -
 -                    174                                   C                  -
 -                    175                                   C                  -
 -                    176                                   C                  -
 -                    177                                   C                  -
 -                    178                                   C                  -
 -                    179                                   C                  -
 -                    180                                   C                  -
 -                    181                                   C                  -
 -                    182                                   C                  -
 -                    183                                   C                  -
 -                    184                                   C                  -
 -                    185                                   C                  -
 -                    186                                   C                  -
 -                    187                                   C                  -
 -                    188                                   C                  -
 -                    189                                   C                  -
 -                    190                                   C                  -
 -                    191                                   C                  -
 -                    192                                   C                  -
 -------------------------------------------------------------------------------

 *******************************************************************************
 *******************************************************************************
 **                                                                           **
 **     #####                         ##              ##                      **
 **    ##   ##            ##          ##              ##                      **
 **   ##     ##                       ##            ######                    **
 **   ##     ##  ##   ##  ##   #####  ##  ##   ####   ##    #####    #####    **
 **   ##     ##  ##   ##  ##  ##      ## ##   ##      ##   ##   ##  ##   ##   **
 **   ##  ## ##  ##   ##  ##  ##      ####     ###    ##   ######   ######    **
 **    ##  ###   ##   ##  ##  ##      ## ##      ##   ##   ##       ##        **
 **     #######   #####   ##   #####  ##  ##  ####    ##    #####   ##        **
 **           ##                                                    ##        **
 **                                                                           **
 **                                                ... make the atoms dance   **
 **                                                                           **
 **            Copyright (C) by CP2K developers group (2000-2022)             **
 **                      J. Chem. Phys. 152, 194103 (2020)                    **
 **                                                                           **
 *******************************************************************************


 TOTAL NUMBERS AND MAXIMUM NUMBERS

  Total number of            - Atomic kinds:                                   1
                             - Atoms:                                        192
                             - Shell sets:                                   192
                             - Shells:                                       960
                             - Primitive Cartesian functions:                960
                             - Cartesian basis functions:                   2688
                             - Spherical basis functions:                   2496

  Maximum angular momentum of- Orbital basis functions:                        2
                             - Local part of the GTH pseudopotential:          2
                             - Non-local part of the GTH pseudopotential:      0


 SCF PARAMETERS         Density guess:                                    ATOMIC
                        --------------------------------------------------------
                        max_scf:                                             300
                        max_scf_history:                                       0
                        max_diis:                                              4
                        --------------------------------------------------------
                        eps_scf:                                        3.00E-07
                        eps_scf_history:                                0.00E+00
                        eps_diis:                                       1.00E-01
                        eps_eigval:                                     1.00E-05
                        --------------------------------------------------------
                        level_shift [a.u.]:                             0.000000
                        added MOs                                       100    0
                        --------------------------------------------------------
                        Mixing method:                            BROYDEN_MIXING
                                                charge density mixing in g-space
                        --------------------------------------------------------
                        Smear method:                                FERMI_DIRAC
                        Electronic temperature [K]:                        300.0
                        Electronic temperature [a.u.]:                  9.50E-04
                        Accuracy threshold:                             1.00E-10
                        --------------------------------------------------------
                        Outer loop SCF in use 
                        No variables optimised in outer loop
                        eps_scf                                         1.00E-06
                        max_scf                                              300
                        DIIS optimization
                        DIIS buffer length                                     3
                        step_size                                       5.00E-01

 Number of electrons:                                                        768
 Number of occupied orbitals:                                                384
 Number of molecular orbitals:                                               484

 Number of orbital functions:                                               2496
 Number of independent orbital functions:                                   2496

 Extrapolation method: initial_guess


 SCF WAVEFUNCTION OPTIMIZATION

  Step     Update method      Time    Convergence         Total energy    Change
  ------------------------------------------------------------------------------
     1 NoMix/Diag. 0.10E+00  155.6     0.92568965     -1085.8939851100 -1.09E+03
     2 Broy./Diag. 0.10E+00  163.7     0.00229501     -1044.3476704029  4.15E+01
     3 Broy./Diag. 0.10E+00  167.4     0.02550565     -1076.5546281367 -3.22E+01
     4 Broy./Diag. 0.10E+00  166.0     0.00036892     -1090.2337797608 -1.37E+01
     5 Broy./Diag. 0.10E+00  160.1     0.00267793     -1090.8397196760 -6.06E-01
     6 Broy./Diag. 0.10E+00  167.1     0.00010722     -1092.0213140145 -1.18E+00
     7 Broy./Diag. 0.10E+00  128.6     0.00089840     -1092.5425205203 -5.21E-01
     8 Broy./Diag. 0.10E+00  156.7     0.00005020     -1092.9074137269 -3.65E-01
     9 Broy./Diag. 0.10E+00  156.1     0.00066823     -1093.0840984039 -1.77E-01
    10 Broy./Diag. 0.10E+00  164.6     0.00005277     -1093.3042605487 -2.20E-01
    11 Broy./Diag. 0.10E+00  151.1     0.00060755     -1093.2689190962  3.53E-02
    12 Broy./Diag. 0.10E+00  154.5     0.00004912     -1093.3484938240 -7.96E-02
    13 Broy./Diag. 0.10E+00  158.9     0.00042833     -1093.3869527612 -3.85E-02
    14 Broy./Diag. 0.10E+00  176.4     0.00010501     -1093.4299884135 -4.30E-02
    15 Broy./Diag. 0.10E+00  141.0     0.00028924     -1093.4626586713 -3.27E-02
    16 Broy./Diag. 0.10E+00  164.5     0.00011931     -1093.4827994668 -2.01E-02
    17 Broy./Diag. 0.10E+00  153.7     0.00005602     -1093.4707633512  1.20E-02
    18 Broy./Diag. 0.10E+00  161.2     0.00003411     -1093.4589733692  1.18E-02
    19 Broy./Diag. 0.10E+00  163.8     0.00004974     -1093.4590638226 -9.05E-05
    20 Broy./Diag. 0.10E+00  164.1     0.00005397     -1093.4670199615 -7.96E-03
    21 Broy./Diag. 0.10E+00  176.9     0.00001653     -1093.4737972995 -6.78E-03
    22 Broy./Diag. 0.10E+00  147.8     0.00005746     -1093.4775586052 -3.76E-03
    23 Broy./Diag. 0.10E+00  131.7     0.00000550     -1093.4797042774 -2.15E-03
    24 Broy./Diag. 0.10E+00  153.6     0.00002539     -1093.4798123993 -1.08E-04
    25 Broy./Diag. 0.10E+00  151.7     0.00000312     -1093.4800548019 -2.42E-04
    26 Broy./Diag. 0.10E+00  156.4     0.00001495     -1093.4796393063  4.15E-04
    27 Broy./Diag. 0.10E+00  175.5     0.00000181     -1093.4798123700 -1.73E-04
    28 Broy./Diag. 0.10E+00  159.1     0.00000914     -1093.4793737191  4.39E-04
    29 Broy./Diag. 0.10E+00  137.9     0.00000105     -1093.4793602340  1.35E-05
    30 Broy./Diag. 0.10E+00  181.1     0.00000581     -1093.4796649890 -3.05E-04
    31 Broy./Diag. 0.10E+00  147.2     0.00000058     -1093.4797370459 -7.21E-05
    32 Broy./Diag. 0.10E+00  156.0     0.00000331     -1093.4798726945 -1.36E-04
    33 Broy./Diag. 0.10E+00  117.3     0.00000032     -1093.4798966461 -2.40E-05
    34 Broy./Diag. 0.10E+00  101.7     0.00000183     -1093.4797847541  1.12E-04
    35 Broy./Diag. 0.10E+00  109.8     0.00000020     -1093.4797874025 -2.65E-06

  *** SCF run converged in    35 steps ***


  Electronic density on regular grids:       -768.0000000000        0.0000000000
  Core density on regular grids:              767.9999999993       -0.0000000007
  Total charge density on r-space grids:       -0.0000000006
  Total charge density g-space grids:          -0.0000000006

  Overlap energy of the core charge distribution:               0.00003030151984
  Self energy of the core charge distribution:              -2560.32152193892080
  Core Hamiltonian energy:                                    801.10390072668156
  Hartree energy:                                            1001.20989907454691
  Exchange-correlation energy:                               -335.22839920241938
  Dispersion energy:                                           -0.24369622716317
  Electronic entropic energy:                                  -0.00000013676510
  Fermi energy:                                                -0.11869661258316

  Total energy:                                             -1093.47978740252006

  outer SCF iter =    1 RMS gradient =   0.20E-06 energy =      -1093.4797874025
  outer SCF loop converged in   1 iterations or   35 steps


 *** WARNING in qs_loc_utils.F:1500 :: User requested the calculation of ***
 *** the localized wavefunction but the section LOCALIZE was not         ***
 *** specified. Localization will not be performed!                      ***


 -------------------------------------------------------------------------------
 -                                                                             -
 -  BSSE CALCULATION         FRAGMENT CONF: 01        FRAGMENT SUBCONF: 01     -
 -                           CHARGE =     0           MULTIPLICITY =     0     -
 -                                                                             -
 -                 ATOM INDEX                              ATOM NAME           -
 -                 ----------                              ---------           -
 -                    193                                   Na                 -
 -------------------------------------------------------------------------------

 *******************************************************************************
 *******************************************************************************
 **                                                                           **
 **     #####                         ##              ##                      **
 **    ##   ##            ##          ##              ##                      **
 **   ##     ##                       ##            ######                    **
 **   ##     ##  ##   ##  ##   #####  ##  ##   ####   ##    #####    #####    **
 **   ##     ##  ##   ##  ##  ##      ## ##   ##      ##   ##   ##  ##   ##   **
 **   ##  ## ##  ##   ##  ##  ##      ####     ###    ##   ######   ######    **
 **    ##  ###   ##   ##  ##  ##      ## ##      ##   ##   ##       ##        **
 **     #######   #####   ##   #####  ##  ##  ####    ##    #####   ##        **
 **           ##                                                    ##        **
 **                                                                           **
 **                                                ... make the atoms dance   **
 **                                                                           **
 **            Copyright (C) by CP2K developers group (2000-2022)             **
 **                      J. Chem. Phys. 152, 194103 (2020)                    **
 **                                                                           **
 *******************************************************************************

 *** WARNING in qs_environment.F:1486 :: More added MOs requested than     ***
 *** available. The full set of unoccupied MOs will be used. Use           ***
 *** 'ADDED_MOS -1' to always use all available MOs and to get rid of this ***
 *** warning.                                                              ***



 TOTAL NUMBERS AND MAXIMUM NUMBERS

  Total number of            - Atomic kinds:                                   1
                             - Atoms:                                          1
                             - Shell sets:                                     1
                             - Shells:                                         5
                             - Primitive Cartesian functions:                  7
                             - Cartesian basis functions:                      9
                             - Spherical basis functions:                      9

  Maximum angular momentum of- Orbital basis functions:                        1
                             - Local part of the GTH pseudopotential:          2
                             - Non-local part of the GTH pseudopotential:      1


 SCF PARAMETERS         Density guess:                                    ATOMIC
                        --------------------------------------------------------
                        max_scf:                                             300
                        max_scf_history:                                       0
                        max_diis:                                              4
                        --------------------------------------------------------
                        eps_scf:                                        3.00E-07
                        eps_scf_history:                                0.00E+00
                        eps_diis:                                       1.00E-01
                        eps_eigval:                                     1.00E-05
                        --------------------------------------------------------
                        level_shift [a.u.]:                             0.000000
                        added MOs                                         4    0
                        --------------------------------------------------------
                        Mixing method:                            BROYDEN_MIXING
                                                charge density mixing in g-space
                        --------------------------------------------------------
                        Smear method:                                FERMI_DIRAC
                        Electronic temperature [K]:                        300.0
                        Electronic temperature [a.u.]:                  9.50E-04
                        Accuracy threshold:                             1.00E-10
                        --------------------------------------------------------
                        Outer loop SCF in use 
                        No variables optimised in outer loop
                        eps_scf                                         1.00E-06
                        max_scf                                              300
                        DIIS optimization
                        DIIS buffer length                                     3
                        step_size                                       5.00E-01

 Number of electrons:                                                          9
 Number of occupied orbitals:                                                  5
 Number of molecular orbitals:                                                 9

 Number of orbital functions:                                                  9
 Number of independent orbital functions:                                      9

 Extrapolation method: initial_guess


 SCF WAVEFUNCTION OPTIMIZATION

  Step     Update method      Time    Convergence         Total energy    Change
  ------------------------------------------------------------------------------
     1 NoMix/Diag. 0.10E+00    6.3     0.02074090       -47.1659773235 -4.72E+01
     2 Broy./Diag. 0.10E+00    8.1     0.00009816       -47.1223736334  4.36E-02
     3 Broy./Diag. 0.10E+00    8.2     0.00101263       -47.1638483448 -4.15E-02
     4 Broy./Diag. 0.10E+00    8.0     0.00002409       -47.1716285655 -7.78E-03
     5 Broy./Diag. 0.10E+00    9.2     0.00025749       -47.1716524468 -2.39E-05
     6 Broy./Diag. 0.10E+00    8.3     0.00000829       -47.1717880772 -1.36E-04
     7 Broy./Diag. 0.10E+00    8.4     0.00014412       -47.1700673755  1.72E-03
     8 Broy./Diag. 0.10E+00    9.3     0.00001855       -47.1691002693  9.67E-04
     9 Broy./Diag. 0.10E+00    8.8     0.00019317       -47.1684551090  6.45E-04
    10 Broy./Diag. 0.10E+00   10.0     0.00000937       -47.1680742358  3.81E-04
    11 Broy./Diag. 0.10E+00    8.5     0.00009220       -47.1678871063  1.87E-04
    12 Broy./Diag. 0.10E+00    8.4     0.00000208       -47.1678399431  4.72E-05
    13 Broy./Diag. 0.10E+00    8.0     0.00000541       -47.1679529934 -1.13E-04
    14 Broy./Diag. 0.10E+00    9.7     0.00000080       -47.1679732382 -2.02E-05
    15 Broy./Diag. 0.10E+00    8.1     0.00001125       -47.1678048607  1.68E-04
    16 Broy./Diag. 0.10E+00    8.1     0.00000235       -47.1677818004  2.31E-05
    17 Broy./Diag. 0.10E+00    9.4     0.00000228       -47.1678269310 -4.51E-05
    18 Broy./Diag. 0.10E+00    8.6     0.00000200       -47.1678710505 -4.41E-05
    19 Broy./Diag. 0.10E+00    9.6     0.00000186       -47.1678897625 -1.87E-05
    20 Broy./Diag. 0.10E+00    8.5     0.00000197       -47.1678847698  4.99E-06
    21 Broy./Diag. 0.10E+00    8.2     0.00000276       -47.1678639540  2.08E-05
    22 Broy./Diag. 0.10E+00   10.0     0.00000352       -47.1678386190  2.53E-05
    23 Broy./Diag. 0.10E+00    8.2     0.00000341       -47.1678188380  1.98E-05
    24 Broy./Diag. 0.10E+00    8.1     0.00000086       -47.1678178585  9.80E-07
    25 Broy./Diag. 0.10E+00   10.2     0.00000039       -47.1678275041 -9.65E-06
    26 Broy./Diag. 0.10E+00    9.0     0.00000035       -47.1678221922  5.31E-06
    27 Broy./Diag. 0.10E+00    9.2     0.00000074       -47.1678096766  1.25E-05
    28 Broy./Diag. 0.10E+00    8.0     0.00000075       -47.1678051350  4.54E-06
    29 Broy./Diag. 0.10E+00    8.2     0.00000060       -47.1678053604 -2.25E-07
    30 Broy./Diag. 0.10E+00    8.0     0.00000028       -47.1678083190 -2.96E-06

  *** SCF run converged in    30 steps ***


  Electronic density on regular grids:         -9.0004221766       -0.0004221766
  Core density on regular grids:                9.0000000000       -0.0000000000
  Total charge density on r-space grids:       -0.0004221766
  Total charge density g-space grids:          -0.0004221766

  Overlap energy of the core charge distribution:               0.00000000000000
  Self energy of the core charge distribution:                -96.60649019442629
  Core Hamiltonian energy:                                     29.76253872652442
  Hartree energy:                                              26.72186117529608
  Exchange-correlation energy:                                 -7.04439238825361
  Dispersion energy:                                           -0.00000859667287
  Electronic entropic energy:                                  -0.00131704147593
  Fermi energy:                                                -0.09146915802842

  Total energy:                                               -47.16780831900819

  outer SCF iter =    1 RMS gradient =   0.28E-06 energy =        -47.1678083190
  outer SCF loop converged in   1 iterations or   30 steps


 *** WARNING in qs_loc_utils.F:1500 :: User requested the calculation of ***
 *** the localized wavefunction but the section LOCALIZE was not         ***
 *** specified. Localization will not be performed!                      ***


 -------------------------------------------------------------------------------
 -                                                                             -
 -  BSSE CALCULATION         FRAGMENT CONF: 11        FRAGMENT SUBCONF: 10     -
 -                           CHARGE =     0           MULTIPLICITY =     0     -
 -                                                                             -
 -                 ATOM INDEX                              ATOM NAME           -
 -                 ----------                              ---------           -
 -                      1                                   C                  -
 -                      2                                   C                  -
 -                      3                                   C                  -
 -                      4                                   C                  -
 -                      5                                   C                  -
 -                      6                                   C                  -
 -                      7                                   C                  -
 -                      8                                   C                  -
 -                      9                                   C                  -
 -                     10                                   C                  -
 -                     11                                   C                  -
 -                     12                                   C                  -
 -                     13                                   C                  -
 -                     14                                   C                  -
 -                     15                                   C                  -
 -                     16                                   C                  -
 -                     17                                   C                  -
 -                     18                                   C                  -
 -                     19                                   C                  -
 -                     20                                   C                  -
 -                     21                                   C                  -
 -                     22                                   C                  -
 -                     23                                   C                  -
 -                     24                                   C                  -
 -                     25                                   C                  -
 -                     26                                   C                  -
 -                     27                                   C                  -
 -                     28                                   C                  -
 -                     29                                   C                  -
 -                     30                                   C                  -
 -                     31                                   C                  -
 -                     32                                   C                  -
 -                     33                                   C                  -
 -                     34                                   C                  -
 -                     35                                   C                  -
 -                     36                                   C                  -
 -                     37                                   C                  -
 -                     38                                   C                  -
 -                     39                                   C                  -
 -                     40                                   C                  -
 -                     41                                   C                  -
 -                     42                                   C                  -
 -                     43                                   C                  -
 -                     44                                   C                  -
 -                     45                                   C                  -
 -                     46                                   C                  -
 -                     47                                   C                  -
 -                     48                                   C                  -
 -                     49                                   C                  -
 -                     50                                   C                  -
 -                     51                                   C                  -
 -                     52                                   C                  -
 -                     53                                   C                  -
 -                     54                                   C                  -
 -                     55                                   C                  -
 -                     56                                   C                  -
 -                     57                                   C                  -
 -                     58                                   C                  -
 -                     59                                   C                  -
 -                     60                                   C                  -
 -                     61                                   C                  -
 -                     62                                   C                  -
 -                     63                                   C                  -
 -                     64                                   C                  -
 -                     65                                   C                  -
 -                     66                                   C                  -
 -                     67                                   C                  -
 -                     68                                   C                  -
 -                     69                                   C                  -
 -                     70                                   C                  -
 -                     71                                   C                  -
 -                     72                                   C                  -
 -                     73                                   C                  -
 -                     74                                   C                  -
 -                     75                                   C                  -
 -                     76                                   C                  -
 -                     77                                   C                  -
 -                     78                                   C                  -
 -                     79                                   C                  -
 -                     80                                   C                  -
 -                     81                                   C                  -
 -                     82                                   C                  -
 -                     83                                   C                  -
 -                     84                                   C                  -
 -                     85                                   C                  -
 -                     86                                   C                  -
 -                     87                                   C                  -
 -                     88                                   C                  -
 -                     89                                   C                  -
 -                     90                                   C                  -
 -                     91                                   C                  -
 -                     92                                   C                  -
 -                     93                                   C                  -
 -                     94                                   C                  -
 -                     95                                   C                  -
 -                     96                                   C                  -
 -                     97                                   C                  -
 -                     98                                   C                  -
 -                     99                                   C                  -
 -                    100                                   C                  -
 -                    101                                   C                  -
 -                    102                                   C                  -
 -                    103                                   C                  -
 -                    104                                   C                  -
 -                    105                                   C                  -
 -                    106                                   C                  -
 -                    107                                   C                  -
 -                    108                                   C                  -
 -                    109                                   C                  -
 -                    110                                   C                  -
 -                    111                                   C                  -
 -                    112                                   C                  -
 -                    113                                   C                  -
 -                    114                                   C                  -
 -                    115                                   C                  -
 -                    116                                   C                  -
 -                    117                                   C                  -
 -                    118                                   C                  -
 -                    119                                   C                  -
 -                    120                                   C                  -
 -                    121                                   C                  -
 -                    122                                   C                  -
 -                    123                                   C                  -
 -                    124                                   C                  -
 -                    125                                   C                  -
 -                    126                                   C                  -
 -                    127                                   C                  -
 -                    128                                   C                  -
 -                    129                                   C                  -
 -                    130                                   C                  -
 -                    131                                   C                  -
 -                    132                                   C                  -
 -                    133                                   C                  -
 -                    134                                   C                  -
 -                    135                                   C                  -
 -                    136                                   C                  -
 -                    137                                   C                  -
 -                    138                                   C                  -
 -                    139                                   C                  -
 -                    140                                   C                  -
 -                    141                                   C                  -
 -                    142                                   C                  -
 -                    143                                   C                  -
 -                    144                                   C                  -
 -                    145                                   C                  -
 -                    146                                   C                  -
 -                    147                                   C                  -
 -                    148                                   C                  -
 -                    149                                   C                  -
 -                    150                                   C                  -
 -                    151                                   C                  -
 -                    152                                   C                  -
 -                    153                                   C                  -
 -                    154                                   C                  -
 -                    155                                   C                  -
 -                    156                                   C                  -
 -                    157                                   C                  -
 -                    158                                   C                  -
 -                    159                                   C                  -
 -                    160                                   C                  -
 -                    161                                   C                  -
 -                    162                                   C                  -
 -                    163                                   C                  -
 -                    164                                   C                  -
 -                    165                                   C                  -
 -                    166                                   C                  -
 -                    167                                   C                  -
 -                    168                                   C                  -
 -                    169                                   C                  -
 -                    170                                   C                  -
 -                    171                                   C                  -
 -                    172                                   C                  -
 -                    173                                   C                  -
 -                    174                                   C                  -
 -                    175                                   C                  -
 -                    176                                   C                  -
 -                    177                                   C                  -
 -                    178                                   C                  -
 -                    179                                   C                  -
 -                    180                                   C                  -
 -                    181                                   C                  -
 -                    182                                   C                  -
 -                    183                                   C                  -
 -                    184                                   C                  -
 -                    185                                   C                  -
 -                    186                                   C                  -
 -                    187                                   C                  -
 -                    188                                   C                  -
 -                    189                                   C                  -
 -                    190                                   C                  -
 -                    191                                   C                  -
 -                    192                                   C                  -
 -                    193                                   Na_ghost           -
 -------------------------------------------------------------------------------

 *******************************************************************************
 *******************************************************************************
 **                                                                           **
 **     #####                         ##              ##                      **
 **    ##   ##            ##          ##              ##                      **
 **   ##     ##                       ##            ######                    **
 **   ##     ##  ##   ##  ##   #####  ##  ##   ####   ##    #####    #####    **
 **   ##     ##  ##   ##  ##  ##      ## ##   ##      ##   ##   ##  ##   ##   **
 **   ##  ## ##  ##   ##  ##  ##      ####     ###    ##   ######   ######    **
 **    ##  ###   ##   ##  ##  ##      ## ##      ##   ##   ##       ##        **
 **     #######   #####   ##   #####  ##  ##  ####    ##    #####   ##        **
 **           ##                                                    ##        **
 **                                                                           **
 **                                                ... make the atoms dance   **
 **                                                                           **
 **            Copyright (C) by CP2K developers group (2000-2022)             **
 **                      J. Chem. Phys. 152, 194103 (2020)                    **
 **                                                                           **
 *******************************************************************************


 TOTAL NUMBERS AND MAXIMUM NUMBERS

  Total number of            - Atomic kinds:                                   2
                             - Atoms:                                        193
                             - Shell sets:                                   193
                             - Shells:                                       965
                             - Primitive Cartesian functions:                967
                             - Cartesian basis functions:                   2697
                             - Spherical basis functions:                   2505

  Maximum angular momentum of- Orbital basis functions:                        2
                             - Local part of the GTH pseudopotential:          2
                             - Non-local part of the GTH pseudopotential:      0


 SCF PARAMETERS         Density guess:                                    ATOMIC
                        --------------------------------------------------------
                        max_scf:                                             300
                        max_scf_history:                                       0
                        max_diis:                                              4
                        --------------------------------------------------------
                        eps_scf:                                        3.00E-07
                        eps_scf_history:                                0.00E+00
                        eps_diis:                                       1.00E-01
                        eps_eigval:                                     1.00E-05
                        --------------------------------------------------------
                        level_shift [a.u.]:                             0.000000
                        added MOs                                       100    0
                        --------------------------------------------------------
                        Mixing method:                            BROYDEN_MIXING
                                                charge density mixing in g-space
                        --------------------------------------------------------
                        Smear method:                                FERMI_DIRAC
                        Electronic temperature [K]:                        300.0
                        Electronic temperature [a.u.]:                  9.50E-04
                        Accuracy threshold:                             1.00E-10
                        --------------------------------------------------------
                        Outer loop SCF in use 
                        No variables optimised in outer loop
                        eps_scf                                         1.00E-06
                        max_scf                                              300
                        DIIS optimization
                        DIIS buffer length                                     3
                        step_size                                       5.00E-01

 Number of electrons:                                                        768
 Number of occupied orbitals:                                                384
 Number of molecular orbitals:                                               484

 Number of orbital functions:                                               2505
 Number of independent orbital functions:                                   2505

 Extrapolation method: initial_guess


 SCF WAVEFUNCTION OPTIMIZATION

  Step     Update method      Time    Convergence         Total energy    Change
  ------------------------------------------------------------------------------
     1 NoMix/Diag. 0.10E+00  165.4     0.92604400     -1085.8939851100 -1.09E+03
     2 Broy./Diag. 0.10E+00  160.2     0.00229847     -1044.3446792760  4.15E+01
     3 Broy./Diag. 0.10E+00  170.9     0.02554386     -1076.5481631789 -3.22E+01
     4 Broy./Diag. 0.10E+00  176.8     0.00036833     -1090.2326025334 -1.37E+01
     5 Broy./Diag. 0.10E+00  161.1     0.00262276     -1090.8380155476 -6.05E-01
     6 Broy./Diag. 0.10E+00  151.7     0.00010647     -1092.0208830482 -1.18E+00
     7 Broy./Diag. 0.10E+00  160.0     0.00088361     -1092.5423611392 -5.21E-01
     8 Broy./Diag. 0.10E+00  189.4     0.00005090     -1092.9080596956 -3.66E-01
     9 Broy./Diag. 0.10E+00  170.8     0.00064949     -1093.0847776840 -1.77E-01
    10 Broy./Diag. 0.10E+00  169.2     0.00005294     -1093.3055329391 -2.21E-01
    11 Broy./Diag. 0.10E+00  173.1     0.00059127     -1093.2698696734  3.57E-02
    12 Broy./Diag. 0.10E+00  146.5     0.00004816     -1093.3495099291 -7.96E-02
    13 Broy./Diag. 0.10E+00  158.6     0.00041725     -1093.3882904537 -3.88E-02
    14 Broy./Diag. 0.10E+00  159.5     0.00010339     -1093.4315091411 -4.32E-02
    15 Broy./Diag. 0.10E+00  179.2     0.00028109     -1093.4640507952 -3.25E-02
    16 Broy./Diag. 0.10E+00  167.3     0.00011744     -1093.4840809087 -2.00E-02
    17 Broy./Diag. 0.10E+00  182.8     0.00005350     -1093.4718073287  1.23E-02
    18 Broy./Diag. 0.10E+00  154.0     0.00003300     -1093.4597593420  1.20E-02
    19 Broy./Diag. 0.10E+00  164.5     0.00005027     -1093.4602106905 -4.51E-04
    20 Broy./Diag. 0.10E+00  163.6     0.00005550     -1093.4690601782 -8.85E-03
    21 Broy./Diag. 0.10E+00  158.9     0.00001627     -1093.4761073642 -7.05E-03
    22 Broy./Diag. 0.10E+00  171.5     0.00006514     -1093.4792384625 -3.13E-03
    23 Broy./Diag. 0.10E+00  152.6     0.00000644     -1093.4811015683 -1.86E-03
    24 Broy./Diag. 0.10E+00  172.9     0.00002737     -1093.4808295169  2.72E-04
    25 Broy./Diag. 0.10E+00  173.0     0.00000352     -1093.4808511852 -2.17E-05
    26 Broy./Diag. 0.10E+00  190.0     0.00001525     -1093.4806790950  1.72E-04
    27 Broy./Diag. 0.10E+00  168.4     0.00000237     -1093.4808596809 -1.81E-04
    28 Broy./Diag. 0.10E+00  179.6     0.00001196     -1093.4805361396  3.24E-04
    29 Broy./Diag. 0.10E+00  171.0     0.00000084     -1093.4805589644 -2.28E-05
    30 Broy./Diag. 0.10E+00  177.6     0.00000523     -1093.4807636873 -2.05E-04
    31 Broy./Diag. 0.10E+00  155.6     0.00000063     -1093.4808061100 -4.24E-05
    32 Broy./Diag. 0.10E+00  180.0     0.00000306     -1093.4809179817 -1.12E-04
    33 Broy./Diag. 0.10E+00  181.4     0.00000039     -1093.4809567762 -3.88E-05
    34 Broy./Diag. 0.10E+00  174.4     0.00000211     -1093.4808836849  7.31E-05
    35 Broy./Diag. 0.10E+00  152.5     0.00000017     -1093.4808984396 -1.48E-05

  *** SCF run converged in    35 steps ***


  Electronic density on regular grids:       -767.9999999980        0.0000000020
  Core density on regular grids:              767.9999999993       -0.0000000007
  Total charge density on r-space grids:        0.0000000014
  Total charge density g-space grids:           0.0000000014

  Overlap energy of the core charge distribution:               0.00003030151984
  Self energy of the core charge distribution:              -2560.32152193892080
  Core Hamiltonian energy:                                    801.09775855245812
  Hartree energy:                                            1001.21542453443089
  Exchange-correlation energy:                               -335.22889352516376
  Dispersion energy:                                           -0.24369622716317
  Electronic entropic energy:                                  -0.00000013678866
  Fermi energy:                                                -0.11866296780416

  Total energy:                                             -1093.48089843962748

  outer SCF iter =    1 RMS gradient =   0.17E-06 energy =      -1093.4808984396
  outer SCF loop converged in   1 iterations or   35 steps


 *** WARNING in qs_loc_utils.F:1500 :: User requested the calculation of ***
 *** the localized wavefunction but the section LOCALIZE was not         ***
 *** specified. Localization will not be performed!                      ***


 -------------------------------------------------------------------------------
 -                                                                             -
 -  BSSE CALCULATION         FRAGMENT CONF: 11        FRAGMENT SUBCONF: 01     -
 -                           CHARGE =     0           MULTIPLICITY =     0     -
 -                                                                             -
 -                 ATOM INDEX                              ATOM NAME           -
 -                 ----------                              ---------           -
 -                      1                                   C_ghost            -
 -                      2                                   C_ghost            -
 -                      3                                   C_ghost            -
 -                      4                                   C_ghost            -
 -                      5                                   C_ghost            -
 -                      6                                   C_ghost            -
 -                      7                                   C_ghost            -
 -                      8                                   C_ghost            -
 -                      9                                   C_ghost            -
 -                     10                                   C_ghost            -
 -                     11                                   C_ghost            -
 -                     12                                   C_ghost            -
 -                     13                                   C_ghost            -
 -                     14                                   C_ghost            -
 -                     15                                   C_ghost            -
 -                     16                                   C_ghost            -
 -                     17                                   C_ghost            -
 -                     18                                   C_ghost            -
 -                     19                                   C_ghost            -
 -                     20                                   C_ghost            -
 -                     21                                   C_ghost            -
 -                     22                                   C_ghost            -
 -                     23                                   C_ghost            -
 -                     24                                   C_ghost            -
 -                     25                                   C_ghost            -
 -                     26                                   C_ghost            -
 -                     27                                   C_ghost            -
 -                     28                                   C_ghost            -
 -                     29                                   C_ghost            -
 -                     30                                   C_ghost            -
 -                     31                                   C_ghost            -
 -                     32                                   C_ghost            -
 -                     33                                   C_ghost            -
 -                     34                                   C_ghost            -
 -                     35                                   C_ghost            -
 -                     36                                   C_ghost            -
 -                     37                                   C_ghost            -
 -                     38                                   C_ghost            -
 -                     39                                   C_ghost            -
 -                     40                                   C_ghost            -
 -                     41                                   C_ghost            -
 -                     42                                   C_ghost            -
 -                     43                                   C_ghost            -
 -                     44                                   C_ghost            -
 -                     45                                   C_ghost            -
 -                     46                                   C_ghost            -
 -                     47                                   C_ghost            -
 -                     48                                   C_ghost            -
 -                     49                                   C_ghost            -
 -                     50                                   C_ghost            -
 -                     51                                   C_ghost            -
 -                     52                                   C_ghost            -
 -                     53                                   C_ghost            -
 -                     54                                   C_ghost            -
 -                     55                                   C_ghost            -
 -                     56                                   C_ghost            -
 -                     57                                   C_ghost            -
 -                     58                                   C_ghost            -
 -                     59                                   C_ghost            -
 -                     60                                   C_ghost            -
 -                     61                                   C_ghost            -
 -                     62                                   C_ghost            -
 -                     63                                   C_ghost            -
 -                     64                                   C_ghost            -
 -                     65                                   C_ghost            -
 -                     66                                   C_ghost            -
 -                     67                                   C_ghost            -
 -                     68                                   C_ghost            -
 -                     69                                   C_ghost            -
 -                     70                                   C_ghost            -
 -                     71                                   C_ghost            -
 -                     72                                   C_ghost            -
 -                     73                                   C_ghost            -
 -                     74                                   C_ghost            -
 -                     75                                   C_ghost            -
 -                     76                                   C_ghost            -
 -                     77                                   C_ghost            -
 -                     78                                   C_ghost            -
 -                     79                                   C_ghost            -
 -                     80                                   C_ghost            -
 -                     81                                   C_ghost            -
 -                     82                                   C_ghost            -
 -                     83                                   C_ghost            -
 -                     84                                   C_ghost            -
 -                     85                                   C_ghost            -
 -                     86                                   C_ghost            -
 -                     87                                   C_ghost            -
 -                     88                                   C_ghost            -
 -                     89                                   C_ghost            -
 -                     90                                   C_ghost            -
 -                     91                                   C_ghost            -
[...]
    18 Broy./Diag. 0.10E+00  195.6     0.00008932     -1140.6573376322  2.44E-02
    19 Broy./Diag. 0.10E+00  175.3     0.00003730     -1140.6522862653  5.05E-03
    20 Broy./Diag. 0.10E+00  173.6     0.00026870     -1140.6629538942 -1.07E-02
    21 Broy./Diag. 0.10E+00  189.8     0.00006225     -1140.6840717994 -2.11E-02
    22 Broy./Diag. 0.10E+00  175.4     0.00012625     -1140.6794891021  4.58E-03
    23 Broy./Diag. 0.10E+00  177.2     0.00003165     -1140.6743380830  5.15E-03
    24 Broy./Diag. 0.10E+00  179.4     0.00008228     -1140.6827473323 -8.41E-03
    25 Broy./Diag. 0.10E+00  188.7     0.00003129     -1140.6913971100 -8.65E-03
    26 Broy./Diag. 0.10E+00  165.0     0.00007849     -1140.6916736509 -2.77E-04
    27 Broy./Diag. 0.10E+00  168.9     0.00003589     -1140.6908450950  8.29E-04
    28 Broy./Diag. 0.10E+00  155.2     0.00003731     -1140.6899094676  9.36E-04
    29 Broy./Diag. 0.10E+00  146.7     0.00004304     -1140.6888649198  1.04E-03
    30 Broy./Diag. 0.10E+00  163.3     0.00003038     -1140.6889792706 -1.14E-04
    31 Broy./Diag. 0.10E+00  172.0     0.00003984     -1140.6899317807 -9.53E-04
    32 Broy./Diag. 0.10E+00  162.7     0.00000439     -1140.6901196074 -1.88E-04
    33 Broy./Diag. 0.10E+00  161.9     0.00000793     -1140.6899740027  1.46E-04
    34 Broy./Diag. 0.10E+00  163.9     0.00000261     -1140.6898813383  9.27E-05
    35 Broy./Diag. 0.10E+00  147.5     0.00000182     -1140.6899440268 -6.27E-05
    36 Broy./Diag. 0.10E+00  149.7     0.00000870     -1140.6899779651 -3.39E-05
    37 Broy./Diag. 0.10E+00  146.2     0.00000226     -1140.6900584022 -8.04E-05
    38 Broy./Diag. 0.10E+00  156.8     0.00000171     -1140.6902974257 -2.39E-04
    39 Broy./Diag. 0.10E+00  167.9     0.00000156     -1140.6904590863 -1.62E-04
    40 Broy./Diag. 0.10E+00  146.4     0.00000062     -1140.6904393275  1.98E-05
    41 Broy./Diag. 0.10E+00  168.6     0.00000122     -1140.6903205907  1.19E-04
    42 Broy./Diag. 0.10E+00  167.6     0.00000037     -1140.6902493915  7.12E-05
    43 Broy./Diag. 0.10E+00  140.0     0.00000167     -1140.6902110260  3.84E-05
    44 Broy./Diag. 0.10E+00   35.5     0.00000064     -1140.6902051910  5.83E-06
    45 Broy./Diag. 0.10E+00   37.7     0.00000053     -1140.6902184898 -1.33E-05
    46 Broy./Diag. 0.10E+00   38.6     0.00000039     -1140.6902312628 -1.28E-05
    47 Broy./Diag. 0.10E+00   37.8     0.00000014     -1140.6902322493 -9.86E-07

  *** SCF run converged in    47 steps ***


  Electronic density on regular grids:       -777.0004245873       -0.0004245873
  Core density on regular grids:              776.9999999993       -0.0000000007
  Total charge density on r-space grids:       -0.0004245879
  Total charge density g-space grids:          -0.0004245879

  Overlap energy of the core charge distribution:               0.00003030151984
  Self energy of the core charge distribution:              -2656.92801213334678
  Core Hamiltonian energy:                                    831.30101767313909
  Hartree energy:                                            1027.71710991108648
  Exchange-correlation energy:                               -342.53153427367084
  Dispersion energy:                                           -0.24670435131140
  Electronic entropic energy:                                  -0.00213937678564
  Fermi energy:                                                -0.09802785070938

  Total energy:                                             -1140.69023224932698

  outer SCF iter =    1 RMS gradient =   0.14E-06 energy =      -1140.6902322493
  outer SCF loop converged in   1 iterations or   47 steps


 *** WARNING in qs_loc_utils.F:1500 :: User requested the calculation of ***
 *** the localized wavefunction but the section LOCALIZE was not         ***
 *** specified. Localization will not be performed!                      ***


 -------------------------------------------------------------------------------
 -                                                                             -
 -                                 BSSE RESULTS                                -
 -                                                                             -
 -                 CP-corrected Total energy:    -1140.688542                  -
 -                                                                             -
 -                       1-body contribution:    -1093.479787                  -
 -                       1-body contribution:      -47.167808                  -
 -                                                                             -
 -                       2-body contribution:       -0.040946                  -
 -                 BSSE-free interaction energy:       -0.040946               -
 -------------------------------------------------------------------------------

 -------------------------------------------------------------------------------
 -                                                                             -
 -                                DBCSR STATISTICS                             -
 -                                                                             -
 -------------------------------------------------------------------------------
 COUNTER                                    TOTAL       BLAS       SMM       ACC
 flops     9 x     9 x     9               109350     100.0%      0.0%      0.0%
 flops     9 x     9 x   100               567000     100.0%      0.0%      0.0%
 flops     9 x     9 x    32               699840     100.0%      0.0%      0.0%
 flops     9 x     9 x   105               799470     100.0%      0.0%      0.0%
 flops     9 x     9 x   128              5101056     100.0%      0.0%      0.0%
 flops    13 x     9 x     9              6160050     100.0%      0.0%      0.0%
 flops     9 x    13 x     9              6349590     100.0%      0.0%      0.0%
 flops    13 x     9 x   100             53235000     100.0%      0.0%      0.0%
 flops     9 x    13 x   100             54873000     100.0%      0.0%      0.0%
 flops    13 x     9 x    32             65707200     100.0%      0.0%      0.0%
 flops     9 x    13 x    32             67728960     100.0%      0.0%      0.0%
 flops    13 x     9 x   105             75061350     100.0%      0.0%      0.0%
 flops     9 x    13 x   105             77370930     100.0%      0.0%      0.0%
 flops    13 x     9 x   128            478932480     100.0%      0.0%      0.0%
 flops     9 x    13 x   128            493668864     100.0%      0.0%      0.0%
 flops    13 x    13 x     9           1491553440     100.0%      0.0%      0.0%
 flops    13 x    13 x    32          15909903360     100.0%      0.0%      0.0%
 flops    13 x    13 x   105          18174854880     100.0%      0.0%      0.0%
 flops    13 x    13 x   100          25779936000     100.0%      0.0%      0.0%
 flops    13 x    13 x   128         165462994944     100.0%      0.0%      0.0%
 flops inhomo. stacks                           0       0.0%      0.0%      0.0%
 flops total                       228.205607E+09     100.0%      0.0%      0.0%
 flops max/rank                     14.871688E+09     100.0%      0.0%      0.0%
 matmuls inhomo. stacks                         0       0.0%      0.0%      0.0%
 matmuls total                            7128202     100.0%      0.0%      0.0%
 number of processed stacks                 14462     100.0%      0.0%      0.0%
 average stack size                                   492.9       0.0       0.0
 marketing flops                   573.783409E+09
 -------------------------------------------------------------------------------
 # multiplications                            192
 max memory usage/rank               1.011257E+09
 # max total images/rank                        1
 # max 3D layers                                1
 # MPI messages exchanged                   18432
 MPI messages size (bytes):
  total size                         7.398136E+09
  min size                           0.000000E+00
  max size                         648.192000E+03
  average size                     401.374594E+03
 MPI breakdown and total messages size (bytes):
             size <=      128                2700                        0
       128 < size <=     8192                 180                   116640
      8192 < size <=    32768                   0                        0
     32768 < size <=   131072                1080                 48697200
    131072 < size <=  4194304               14472               7349325840
   4194304 < size <= 16777216                   0                        0
  16777216 < size                               0                        0
 -------------------------------------------------------------------------------
 -                                                                             -
 -                      DBCSR MESSAGE PASSING PERFORMANCE                      -
 -                                                                             -
 -------------------------------------------------------------------------------
 ROUTINE             CALLS      AVE VOLUME [Bytes]
 MP_Bcast               21                     12.
 MP_Allreduce         1408                      9.
 MP_Alltoall          5436                 435742.
 MP_ISend             3072                 162631.
 MP_IRecv             3072                 149226.
 -------------------------------------------------------------------------------

 -------------------------------------------------------------------------------
 -                                                                             -
 -                                DBM STATISTICS                               -
 -                                                                             -
 -------------------------------------------------------------------------------
    M  x    N  x    K                                          COUNT     PERCENT
 -------------------------------------------------------------------------------

 -------------------------------------------------------------------------------
 -                                                                             -
 -                                GRID STATISTICS                              -
 -                                                                             -
 -------------------------------------------------------------------------------
 LP    KERNEL             BACKEND                              COUNT     PERCENT
 4     collocate ortho    REF                               18782402      50.10%
 4     integrate ortho    REF                               18329814      48.89%
 3     collocate ortho    REF                                 179400       0.48%
 3     integrate ortho    REF                                 175260       0.47%
 0     collocate general  REF                                   9264       0.02%
 2     collocate ortho    REF                                   8211       0.02%
 2     integrate ortho    REF                                   8007       0.02%
 -------------------------------------------------------------------------------

 MEMORY| Estimated peak process memory [MiB]                                 965

 -------------------------------------------------------------------------------
 -                                                                             -
 -                         MESSAGE PASSING PERFORMANCE                         -
 -                                                                             -
 -------------------------------------------------------------------------------

 ROUTINE             CALLS      AVE VOLUME [Bytes]
 MP_Group               24
 MP_Bcast              537                1799128.
 MP_Allreduce         2801                   1726.
 MP_Sync               246
 MP_Alltoall          2596               27132206.
 MP_SendRecv          8214                 231861.
 MP_ISendRecv         5760                 187520.
 MP_Wait             14373
 MP_comm_split          30
 MP_ISend             6264                1534566.
 MP_IRecv             6264                1534340.
 MP_Recv               118                 611321.
 -------------------------------------------------------------------------------


 -------------------------------------------------------------------------------
 -                                                                             -
 -                           R E F E R E N C E S                               -
 -                                                                             -
 -------------------------------------------------------------------------------
 
 CP2K version 2023.1, the CP2K developers group (2023).
 CP2K is freely available from https://www.cp2k.org/ .

 Kuehne,Thomas D.; Iannuzzi,Marcella; Del Ben,Mauro;
 Rybkin,Vladimir V.; Seewald,Patrick; Stein,Frederick; Laino,Teodoro;
 Khaliullin,Rustam Z.; Schuett,Ole; Schiffmann,Florian; Golze,Dorothea;
 Wilhelm,Jan; Chulkov,Sergey; Bani-Hashemian,Mohammad Hossein;
 Weber,Valery; Borstnik,Urban; Taillefumier,Mathieu;
 Jakobovits,Alice Shoshana; Lazzaro,Alfio; Pabst,Hans; Mueller,Tiziano;
 Schade,Robert; Guidon,Manuel; Andermatt,Samuel; Holmberg,Nico;
 Schenter,Gregory K.; Hehn,Anna; Bussy,Augustin; Belleflamme,Fabian;
 Tabacchi,Gloria; Gloess,Andreas; Lass,Michael; Bethune,Iain;
 Mundy,Christopher J.; Plessl,Christian; Watkins,Matt;
 VandeVondele,Joost; Krack,Matthias; Hutter,Juerg. 
 The Journal of Chemical Physics, 152 (19), (2020). 
 CP2K: An electronic structure and molecular dynamics software package -
 Quickstep: Efficient and accurate electronic structure calculations.
 https://doi.org/10.1063/5.0007045

 Goerigk, Lars; Hansen, Andreas; Bauer, Christoph; Ehrlich, Stephan;
 Najibi, Asim; Grimme, Stefan. , 19 (48), (2017). 
 A look at the density functional theory zoo with the advanced GMTKN55 database
 for general main group thermochemistry, kinetics and noncovalent interactions.
 https://doi.org/10.1039/C7CP04913G

 Schuett, Ole; Messmer, Peter; Hutter, Juerg; VandeVondele, Joost. 
 Electronic Structure Calculations on Graphics Processing Units, John
 Wiley & Sons, Ltd, 173-190 (2016). 
 GPU-Accelerated Sparse Matrix-Matrix Multiplication for
 Linear Scaling Density Functional Theory.
 https://doi.org/10.1002/9781118670712.ch8

 Borstnik, U; VandeVondele, J; Weber, V; Hutter, J. 
 PARALLEL COMPUTING, 40 (5-6), 47-58 (2014). 
 Sparse matrix multiplication: The distributed block-compressed sparse
 row library.
 https://doi.org/10.1016/j.parco.2014.03.012

 Hutter, J; Iannuzzi, M; Schiffmann, F; VandeVondele, J. 
 WIREs Comput Mol Sci., 4 (1), 15-25 (2014). 
 CP2K: atomistic simulations of condensed matter systems.
 https://doi.org/10.1002/wcms.1159

 Marek, A; Blum, V; Johanni, R; Havu, V; Lang, B; Auckenthaler, T;
 Heinecke, A; Bungartz, H; Lederer, H. 
 Journal of Physics: Condensed Matter, 26 (21), (2014). 
 The ELPA library: scalable parallel eigenvalue solutions for
 electronic structure
 theory and computational science.
 https://doi.org/10.1088/0953-8984/26/21/213201

 Grimme, S; Ehrlich, S; Goerigk, L. 
 JOURNAL OF COMPUTATIONAL CHEMISTRY, 32, 1456 (2011). 
 Effect of the damping function in dispersion corrected density functional theory.
 https://doi.org/10.1002/jcc.21759

 Grimme, S; Antony, J; Ehrlich, S; Krieg, H. 
 JOURNAL OF CHEMICAL PHYSICS, 132 (15), 154104 (2010). 
 A consistent and accurate ab initio parametrization of density
 functional dispersion correction (DFT-D) for the 94 elements H-Pu.
 https://doi.org/10.1063/1.3382344

 VandeVondele, J; Hutter, J. 
 JOURNAL OF CHEMICAL PHYSICS, 127 (11), 114105 (2007). 
 Gaussian basis sets for accurate calculations on molecular systems in
 gas and condensed phases.
 https://doi.org/10.1063/1.2770708

 Krack, M. 
 THEORETICAL CHEMISTRY ACCOUNTS, 114 (1-3), 145-152 (2005). 
 Pseudopotentials for H to Kr optimized for gradient-corrected
 exchange-correlation functionals.
 https://doi.org/10.1007/s00214-005-0655-y

 VandeVondele, J; Krack, M; Mohamed, F; Parrinello, M; Chassaing, T;
 Hutter, J. COMPUTER PHYSICS COMMUNICATIONS, 167 (2), 103-128 (2005). 
 QUICKSTEP: Fast and accurate density functional calculations using a
 mixed Gaussian and plane waves approach.
 https://doi.org/10.1016/j.cpc.2004.12.014

 Frigo, M; Johnson, SG. 
 PROCEEDINGS OF THE IEEE, 93 (2), 216-231 (2005). 
 The design and implementation of FFTW3.
 https://doi.org/10.1109/JPROC.2004.840301

 Hartwigsen, C; Goedecker, S; Hutter, J. 
 PHYSICAL REVIEW B, 58 (7), 3641-3662 (1998). 
 Relativistic separable dual-space Gaussian pseudopotentials from H to Rn.
 https://doi.org/10.1103/PhysRevB.58.3641

 Lippert, G; Hutter, J; Parrinello, M. 
 MOLECULAR PHYSICS, 92 (3), 477-487 (1997). 
 A hybrid Gaussian and plane wave density functional scheme.
 https://doi.org/10.1080/002689797170220

 Perdew, JP; Burke, K; Ernzerhof, M. 
 PHYSICAL REVIEW LETTERS, 77 (18), 3865-3868 (1996). 
 Generalized gradient approximation made simple.
 https://doi.org/10.1103/PhysRevLett.77.3865

 Goedecker, S; Teter, M; Hutter, J. 
 PHYSICAL REVIEW B, 54 (3), 1703-1710 (1996). 
 Separable dual-space Gaussian pseudopotentials.
 https://doi.org/10.1103/PhysRevB.54.1703


 -------------------------------------------------------------------------------
 -                                                                             -
 -                                T I M I N G                                  -
 -                                                                             -
 -------------------------------------------------------------------------------
 SUBROUTINE                       CALLS  ASD         SELF TIME        TOTAL TIME
                                MAXIMUM       AVERAGE  MAXIMUM  AVERAGE  MAXIMUM
 CP2K                                 1  1.0     3.12     3.18 26494.18 26494.19
 qs_energies                          5  2.0     0.00     0.00 26447.68 26448.05
 scf_env_do_scf                       5  3.0     0.00     0.00 26370.77 26371.13
 scf_env_do_scf_inner_loop          192  4.0     0.01     0.02 26370.77 26371.13
 qs_scf_new_mos                     192  5.0     0.01     0.03 24835.40 24836.13
 eigensolver                        192  6.0     0.02     0.04 24504.18 24507.09
 cp_fm_diag_elpa                    162  7.0     0.00     0.00 22876.51 22880.93
 cp_fm_diag_elpa_base               162  8.0 22863.99 22867.46 22868.21 22868.91
 cp_fm_triangular_multiply          576  7.0  1556.01  1563.89  1556.01  1563.89
 qs_ks_update_qs_env                192  5.0     0.00     0.00   762.27   763.27
 rebuild_ks_matrix                  192  6.0     0.00     0.00   750.92   752.08
 qs_ks_build_kohn_sham_matrix       192  7.0     0.05     0.09   750.92   752.08
 qs_rho_update_rho_low              197  5.0     0.00     0.02   611.37   612.74
 calculate_rho_elec                 197  6.0     1.47     1.66   611.37   612.74
 rs_pw_transfer                    1561  9.5     0.04     0.08   483.22   594.58
 sum_up_and_integrate               192  8.0     1.61     1.93   537.54   538.81
 integrate_v_rspace                 192  9.0     0.01     0.02   535.92   537.08
 -------------------------------------------------------------------------------

 The number of warnings for this run is : 6
 
 -------------------------------------------------------------------------------
  **** **** ******  **  PROGRAM ENDED AT                 2025-06-22 23:00:48.830
 ***** ** ***  *** **   PROGRAM RAN ON                                sebnode129
 **    ****   ******    PROGRAM RAN BY                                    luehrs
 ***** **    ** ** **   PROGRAM PROCESS ID                               1826072
  **** **  *******  **  PROGRAM STOPPED IN /home/luehrs/PhD/Sodium_batteries/Sod
                                           ium-graphene-curvature/Sinus_surface2
                                           /Sinus2
