     193
 i =       56, E =     -1140.5788917898
  C        18.5478979083        2.1578182100       -0.8482445062
  C         6.2922935309       12.9074603839        3.5638697838
  C         7.5042494730       13.6215979383        3.7804672497
  C         8.7337788499       12.9088385163        3.8404527479
  C         9.9617138459       13.6222003956        3.7417322749
  C        11.1677380941       12.9100324959        3.4881821460
  C        12.3403066638       13.6222307751        3.1079065449
  C        13.4675194508       12.9102057757        2.6089566048
  C        14.5511080615       13.6221934341        2.0222846751
  C        15.5868160737       12.9091701439        1.3556684550
  C        16.5900427817       13.6217758501        0.6427334519
  C        17.5696759513       12.9080474871       -0.1021475933
  C        18.5480496618       13.6212105922       -0.8486265906
  C        19.5447017550       12.9075268133       -1.5710047592
  C        20.5786871873       13.6210138409       -2.2383529386
  C        21.6591644056       12.9071265785       -2.8280304926
  C        22.7862311696       13.6207142226       -3.3222761798
  C        21.6593103926       11.4707716081       -2.8286029931
  C        19.5451183829       11.4710555758       -1.5714850243
  C        17.5699792667       11.4715535714       -0.1036006155
  C        15.5855910753       11.4729422308        1.3500669843
  C        13.4640907079       11.4746531381        2.5981786976
  C        12.3320317519       10.7650699621        3.0864322405
  C        11.1638840245       11.4746752394        3.4799145504
  C         9.9570592874       10.7612002653        3.7312125819
  C         8.7313431994       11.4732434556        3.8393910742
  C         7.5019868734       10.7582872010        3.7813929269
  C         6.2907230562       11.4714032964        3.5652391468
  C         5.1147163761       10.7573252171        3.2016666290
  C        20.5788173721       10.7575001251       -2.2393591986
  C        18.5488264219       10.7578585390       -0.8494607856
  C        16.5888324296       10.7585724757        0.6378443120
  C        14.5444939270       10.7608237879        2.0058199607
  C        20.5789285355        9.3210757722       -2.2400171105
  C        19.5454488815        8.6073631302       -1.5722903632
  C        18.5494939742        9.3213052165       -0.8499068468
  C        17.5713379511        8.6075245324       -0.1039908164
  C        16.5899095043        9.3221071218        0.6365744927
  C        15.5851637497        8.6080713868        1.3451350651
  C        14.5457507292        9.3247523065        1.9998751604
  C        13.4582843842        8.6099852347        2.5764550007
  C        12.3254950437        9.3279382210        3.0673244962
  C        11.1512116574        8.6106692416        3.4533573273
  C         9.9510067715        9.3256392170        3.7262369881
  C         8.7280597825        8.6075178307        3.8358250771
  C         7.4997340033        9.3221139644        3.7823249174
  C         6.2885991650        8.6069560375        3.5669875332
  C         5.1134151847        9.3211415885        3.2027083130
  C         3.9869801264        8.6068922356        2.7078544024
  C         3.9873617978        7.1707396937        2.7075688993
  C         5.1142209388        6.4569495428        3.2020294505
  C         6.2892828610        7.1708437721        3.5665961165
  C         7.5009730920        6.4563302742        3.7821306334
  C         8.7292651391        7.1706905353        3.8366703084
  C         9.9541933652        6.4542857720        3.7341212400
  C        11.1558129391        7.1689089803        3.4643528525
  C        12.3335305200        6.4539277726        3.0886975775
  C        13.4616946102        7.1698776761        2.5860567628
  C        14.5498301726        6.4556709837        2.0102197938
  C        15.5860549586        7.1710479146        1.3481586834
  C        16.5909705207        6.4571853282        0.6397888806
  C        17.5712578786        7.1710830512       -0.1032031946
  C        18.5494129989        6.4576030073       -0.8492276036
  C        19.5453677849        7.1709891500       -1.5719925464
  C        18.5486931002        5.0210247333       -0.8485510118
  C        17.5706257116        4.3073582176       -0.1010192808
  C        16.5908892169        5.0206130754        0.6429890392
  C        15.5896390518        4.3067773240        1.3595314146
  C        14.5505481813        5.0193893384        2.0196843394
  C        13.4701369182        4.3059213217        2.6130825260
  C        12.3392176352        5.0164745390        3.1050596626
  C        11.1681249458        4.3056281746        3.4910054131
  C         9.9599804663        5.0186014262        3.7391771815
  C         8.7331813066        4.3057444893        3.8418222162
  C         7.5033857324        5.0201506897        3.7814686512
  C         6.2919904142        4.3066123445        3.5642248606
  C         5.1160500198        5.0207611527        3.2002139855
  C         3.9899985165        4.3068761475        2.7043474460
  C         2.9182764460        5.0206858818        2.0993741751
  C         2.9170676599        6.4570131275        2.1006699883
  C         1.8981390596        4.3068385197        1.4116495553
  C         1.8984033229        2.8704662922        1.4114641718
  C         2.9195136777        2.1571186303        2.0978527951
  C         3.9910207553        2.8706677549        2.7030647863
  C         5.1176686107        2.1571704123        3.1980463869
  C         6.2929107503        2.8705763648        3.5632457901
  C         7.5047336796        2.1572568805        3.7805353147
  C         8.7345058645        2.8700984940        3.8418129561
  C         9.9625483090        2.1577242286        3.7433993581
  C        11.1697341183        2.8699563159        3.4934091802
  C        12.3418583590        2.1579814813        3.1117148192
  C        13.4708655089        2.8700347981        2.6166651652
  C        14.5527615504        2.1581356189        2.0262655324
  C        15.5898064500        2.8705132437        1.3616881343
  C        16.5909768654        2.1580090290        0.6449814201
  C        17.5701953965        2.8708835562       -0.1006023944
  C        20.5784438273        2.1575523856       -2.2383918069
  C        21.6590527156        2.8707655734       -2.8279880354
  C        25.1645536192        2.1565713890       -3.9402987849
  C        26.3919279405        2.8700632780       -4.0313505679
  C        28.8323789215        2.8698172087       -3.7483745656
  C        27.6208575316        2.1562155868       -3.9660347158
  C        33.2283034266        2.8700407403       -1.5990824160
  C        30.0080405502        2.1561561714       -3.3840857717
  C        31.1352425675        2.8699216369       -2.8902825847
  C        32.2070827502        2.1564751331       -2.2853751264
  C        34.2099179360        2.1566578017       -0.8583382555
  C        19.5447347357        4.3074047094       -1.5711526881
  C        22.7861215232        2.1570014975       -3.3221730061
  C        19.5442993544        2.8708929867       -1.5710679594
  C        35.1734003894        2.8702381624       -0.0938152044
  C         0.9169284501        2.1568770221        0.6706669936
  C        23.9574623152        2.8704508611       -3.6993957224
  C        23.9574256820       12.9066333418       -3.6997749589
  C        25.1645804727       13.6204010016       -3.9405318939
  C        26.3918745055       12.9061666431       -4.0317179333
  C        27.6208534505       13.6200375300       -3.9659859585
  C        28.8322700581       12.9059604731       -3.7481909988
  C        30.0079841271       13.6199293904       -3.3840746607
  C        31.1351411436       12.9061978891       -2.8899923535
  C        32.2070710776       13.6200611773       -2.2854008460
  C        33.2285165057       12.9063935498       -1.5993748190
  C        34.2099866245       13.6202213884       -0.8584651339
  C        35.1735967661       12.9066338401       -0.0940513676
  C        36.1369062193       13.6204205865        0.6706632824
  C        37.1181545971       12.9067563657        1.4118138173
  C        38.1390050311       13.6206883523        2.0984899233
  C        39.2100777543       12.9070965729        2.7043839373
  C        40.3371502600       13.6210734240        3.1986145398
  C        39.2086258344       11.4708698704        2.7061463641
  C        37.1174728300       11.4704201328        1.4124671487
  C        35.1739873882       11.4702241382       -0.0947226956
  C        33.2288798125       11.4700438455       -1.5999142316
  C        31.1352217880       11.4699119993       -2.8901401798
  C        30.0079303531       10.7562243954       -3.3837864939
  C        28.8322994226       11.4698217913       -3.7482029893
  C        27.6208654769       10.7562278261       -3.9663655825
  C        26.3919685856       11.4700847839       -4.0320210797
  C        25.1645901583       10.7566047685       -3.9412561000
  C        23.9575263100       11.4704688446       -3.7002278437
  C        22.7862783295       10.7570340483       -3.3230386721
  C        38.1373149741       10.7570734442        2.1005963121
  C        36.1368544351       10.7568447158        0.6705124131
  C        34.2109819157       10.7566696050       -0.8597831415
  C        32.2075082688       10.7564842827       -2.2859822520
  C        38.1363843426        9.3207507489        2.1015415581
  C        37.1169281020        8.6067920609        1.4129295340
  C        36.1367217268        9.3204720463        0.6705327826
  C        35.1745412790        8.6066986762       -0.0955056867
  C        34.2113349302        9.3202674534       -0.8603895963
  C        33.2294261986        8.6064208347       -1.6007179591
  C        32.2076228094        9.3200787251       -2.2862643952
  C        31.1352377417        8.6062748719       -2.8901268424
  C        30.0078211879        9.3200086170       -3.3836009048
  C        28.8322665411        8.6060246483       -3.7481005481
  C        27.6209098170        9.3200563593       -3.9664408312
  C        26.3919645933        8.6061691444       -4.0320907786
  C        25.1646905690        9.3204339759       -3.9412180803
  C        23.9575460320        8.6066795497       -3.7005591261
  C        22.7863171108        9.3207916872       -3.3235383255
  C        21.6592272829        8.6071439365       -2.8295605038
  C        21.6591458874        7.1707890457       -2.8295625733
  C        22.7862966148        6.4569824601       -3.3232619524
  C        23.9575022266        7.1704981668       -3.7005692022
  C        25.1646159250        6.4565881798       -3.9410230055
  C        26.3919843487        7.1700732951       -4.0318970570
  C        27.6208993606        6.4562522928       -3.9662860569
  C        28.8323137474        7.1698726507       -3.7481811923
  C        30.0079192624        6.4562490916       -3.3837225693
  C        31.1352030458        7.1699753470       -2.8900733495
  C        32.2074706685        6.4565189208       -2.2859681796
  C        33.2293528208        7.1700629019       -1.6005840829
  C        34.2112413835        6.4567234087       -0.8601734028
  C        35.1746610661        7.1703059027       -0.0956089317
  C        36.1370095311        6.4569053649        0.6701878924
  C        37.1170541524        7.1704786010        1.4128143336
  C        36.1371264434        5.0205049583        0.6702145348
  C        35.1738580908        4.3066767866       -0.0945147508
  C        34.2107208506        5.0202915304       -0.8594461663
  C        33.2286003104        4.3064157617       -1.5995145535
  C        32.2073155671        5.0200840563       -2.2857520061
  C        31.1352319324        4.3062406004       -2.8901661195
  C        30.0079837696        5.0200101907       -3.3840052452
  C        28.8323661842        4.3059857085       -3.7483690167
  C        27.6209143760        5.0200531000       -3.9661582350
  C        26.3919393508        4.3061576668       -4.0315178238
  C        25.1646194016        5.0203934228       -3.9407135056
  C        23.9575211579        4.3066281811       -3.6996373762
  C        22.7861890016        5.0207150608       -3.3227992755
  C        21.6590694242        4.3071684309       -2.8284199097
  C        20.5785797774        5.0210250221       -2.2391185587
  C        20.5788936519        6.4574674149       -2.2397070889
 Na        12.9142525478        8.0743104408        5.2971889233
