     116
 i =      145, E =      -674.5115780837
  C         8.6229205701       14.9673419320        0.4343348255
  C         9.9144485394       15.5533327851        0.5811683860
  C        11.0648771288       14.8074820379        0.4874515988
  C        12.2201590377       15.6202335563        0.6294613369
  C        13.5190815625       14.9725656321        0.4877262187
  C        14.7124931030       15.6309911688        0.4864720667
  C        15.9688189870       15.0479398547        0.2554817217
  C        17.2094860035       15.5842720481        0.0297875783
  C        18.4423909303       15.0141013887       -0.1735832995
  C        19.6691001864       15.6317226933       -0.4671774953
  C        20.8954904468       14.9693360592       -0.4008560110
  C        22.1218607395       15.6304611410       -0.4692438112
  C        23.3549344912       15.0231715193       -0.1927313714
  C        24.5907363021       15.5868963373        0.0066658059
  C        25.8366801189       15.0422516912        0.2112552883
  C        27.0770718836       15.6608212651        0.4419558518
  C        25.8208208093       13.5552301604        0.0950101823
  C        23.3556015370       13.5425844409       -0.1053209889
  C        20.8974728607       13.5212244779       -0.1900150602
  C        18.4422651285       13.5407400431       -0.0827202146
  C        15.9790181152       13.5607778625        0.1481068020
  C        14.7507117398       12.8381608251        0.1640559812
  C        13.5161695892       13.5257274854        0.2858748282
  C        12.3094377253       12.7682099046        0.2123502289
  C        11.0680039853       13.4309079594        0.2858878184
  C         9.8327157958       12.7688812055        0.1816936588
  C         8.6279328400       13.5200726990        0.2341530974
  C         7.3941250027       12.8332889356        0.1059878781
  C        24.5876414088       12.8491519623       -0.0202124370
  C        22.1276598445       12.8277535248       -0.1193030491
  C        19.6707843835       12.8262473898       -0.1082900020
  C        17.2094499442       12.8507995404        0.0190387251
  C        24.5819130615       11.4086332770       -0.0480475254
  C        23.3564454050       10.6902944654       -0.0760856892
  C        22.1266173896       11.3980142622       -0.0817972278
  C        20.8963062387       10.6867012551       -0.0813972709
  C        19.6684224065       11.3971862961       -0.0706954514
  C        18.4354727312       10.6901810501       -0.0576534898
  C        17.2097650968       11.4096260716       -0.0116048599
  C        15.9847139023       10.6887061809       -0.0081879500
  C        14.7553893924       11.4001716554        0.0553574483
  C        13.5388003451       10.6658412325        0.0218254559
  C        12.3061822304       11.3617892364        0.0743190244
  C        11.0695960462       10.6549041692        0.0130014298
  C         9.8375495629       11.3567149757        0.0480878159
  C         8.6048714308       10.6617079090       -0.0124877811
  C         7.3871312632       11.3961942116        0.0059648221
  C         6.1590665424       10.6867740510       -0.0457930478
  C         6.1573906029        9.2559794811       -0.0764984677
  C         7.3793179779        8.5327239300       -0.0783042751
  C         8.6065835416        9.2393381706       -0.0666654088
  C         9.8386629093        8.5255730823       -0.0793344663
  C        11.0683591386        9.2342571290       -0.0594190402
  C        12.3007188860        8.5263578874       -0.0849817754
  C        13.5334255492        9.2424680647       -0.0592266657
  C        14.7584056861        8.5360246234       -0.1029984751
  C        15.9841466088        9.2595668752       -0.0783558055
  C        17.2105709360        8.5467369234       -0.1246231482
  C        18.4351673409        9.2617993207       -0.0979854477
  C        19.6662518583        8.5469161911       -0.1240602999
  C        20.8939810144        9.2582139264       -0.0984720833
  C        22.1227626443        8.5447186819       -0.1055943084
  C        23.3534163426        9.2596143275       -0.0894980427
  C        22.1204280091        7.1173774054       -0.1310271023
  C        20.8920129405        6.4071164459       -0.1942235833
  C        19.6667975538        7.1201631849       -0.1934839227
  C        18.4367785105        6.4083302717       -0.2720445839
  C        17.2101113457        7.1185192217       -0.2202285989
  C        15.9834206173        6.4022412397       -0.2696887019
  C        14.7541833210        7.1098194918       -0.1869441238
  C        13.5284115436        6.3952875068       -0.1925334550
  C        12.2981729724        7.1034359420       -0.1284412100
  C        11.0676419953        6.3910597279       -0.1038660195
  C         9.8403625678        7.1001502700       -0.0808990079
  C         8.6080387034        6.3897675822       -0.0386515671
  C         7.3808378464        7.1039609482       -0.0562053823
  C         6.1526217870        6.3942488004       -0.0324764510
  C         4.9254415898        7.1123525610       -0.0759457137
  C         4.9281503399        8.5423798411       -0.0877577381
  C         3.6993495561        6.4019483437       -0.0972949466
  C         3.6962848667        4.9665850099       -0.0583434730
  C         4.9151905665        4.2686453490        0.1094900651
  C         6.1507680754        4.9661024200        0.0866657260
  C         7.3787720033        4.2722871413        0.2091882604
  C         8.6075262340        4.9616072068        0.0754193634
  C         9.8430593966        4.2598787017        0.0808531631
  C        11.0662628516        4.9567547042       -0.0797902814
  C        12.2944548992        4.2552476805       -0.2065531151
  C        13.5250588713        4.9636387738       -0.2915068205
  C        14.7463368688        4.2775200459       -0.4892295448
  C        15.9803279570        4.9802212580       -0.4490989267
  C        17.2094788599        4.2982932066       -0.6094514194
  C        18.4356880866        4.9850561650       -0.4480736538
  C        19.6697043704        4.2835581177       -0.4786523436
  C        20.8903280863        4.9730799366       -0.2807631494
  C        19.6838056472        2.8277509273       -0.7385476283
  C        18.4589902508        2.2635217897       -1.1041852098
  C        17.2102913609        2.8676352788       -0.9844941331
  C        15.9615443317        2.2627930328       -1.1209261611
  C        14.7313069286        2.8247408013       -0.7706093620
  C        13.5006388815        2.2016566888       -0.6317564388
  C        12.2917926080        2.7783971398       -0.2565877948
  C        11.0834071622        2.1782333580        0.0798998681
  C         9.8570747457        2.7944644327        0.2765115256
  C         8.6287015506        2.2184064908        0.6104510637
  C         6.1280936487        2.2255984207        0.6542554040
  C         7.3796174199        2.8265344644        0.5259050844
  C         4.8987700140        2.8079181465        0.3392763189
  C         3.6671213721        2.1903916090        0.1800186407
  C         2.4638245939        2.7855824959       -0.1829789621
  C         2.4670464119        4.2639285181       -0.1747109872
  C         1.2590298209        2.2039544752       -0.5559033511
  C        11.6866487983       16.8821038715        0.8237650693
  O        12.2735618126       18.0619852762        1.0459249262
  O        10.2938272204       16.8751001540        0.7940476978
  H        11.5901110842       18.7561662946        1.1057948458
