 DBCSR| CPU Multiplication driver                                           BLAS (U)
 DBCSR| Multrec recursion limit                                              512 (U)
 DBCSR| Multiplication stack size                                           1000 (D)
 DBCSR| Maximum elements for images                                    UNLIMITED (U)
 DBCSR| Multiplicative factor virtual images                                   1 (U)
 DBCSR| Use multiplication densification                                       T (D)
 DBCSR| Multiplication size stacks                                             3 (U)
 DBCSR| Use memory pool for CPU allocation                                     F (U)
 DBCSR| Number of 3D layers                                               SINGLE (U)
 DBCSR| Use MPI memory allocation                                              F (U)
 DBCSR| Use RMA algorithm                                                      F (U)
 DBCSR| Use Communication thread                                               T (U)
 DBCSR| Communication thread load                                             87 (D)
 DBCSR| MPI: My process id                                                     0
 DBCSR| MPI: Number of processes                                              16
 DBCSR| OMP: Current number of threads                                         1
 DBCSR| OMP: Max number of threads                                             1
 DBCSR| Split modifier for TAS multiplication algorithm                  1.0E+00 (U)


  **** **** ******  **  PROGRAM STARTED AT               2025-09-02 13:33:27.450
 ***** ** ***  *** **   PROGRAM STARTED ON                            sebnode130
 **    ****   ******    PROGRAM STARTED BY                                luehrs
 ***** **    ** ** **   PROGRAM PROCESS ID                               1396936
  **** **  *******  **  PROGRAM STARTED IN /home/luehrs/PhD/Sodium_batteries/Sod
                                           ium-graphene-functional_groups/Carbox
                                           yl/Carboxyl_nonhydrogenated_edges

 CP2K| version string:                                       CP2K version 2023.1
 CP2K| source code revision number:                                  git:b888bd8
 CP2K| cp2kflags: omp libint fftw3 libxc elpa parallel scalapack spglib         
 CP2K| is freely available from                            https://www.cp2k.org/
 CP2K| Program compiled at                          Tue Jan 10 19:52:03 UTC 2023
 CP2K| Program compiled on                                            x86-ubc-01
 CP2K| Program compiled for                                Linux-x86_64-gfortran
 CP2K| Data directory path                                       /usr/share/cp2k
 CP2K| Input file name                                         input.zig-zag.inp

 GLOBAL| Force Environment number                                              1
 GLOBAL| Basis set file name                                      ./BASIS_MOLOPT
 GLOBAL| Potential file name                                    ./GTH_POTENTIALS
 GLOBAL| MM Potential file name                                     MM_POTENTIAL
 GLOBAL| Coordinate file name                 carboxyl_edges_sodium2_relaxed.xyz
 GLOBAL| Method name                                                        CP2K
 GLOBAL| Project name                            carboxyl_edges_sodium2_BSSE_PBE
 GLOBAL| Run type                                                           BSSE
 GLOBAL| FFT library                                                       FFTW3
 GLOBAL| Diagonalization library                                            ELPA
 GLOBAL| DGEMM library                                                      BLAS
 GLOBAL| Minimum number of eigenvectors for ELPA usage                        16
 GLOBAL| Orthonormality check for eigenvectors                          DISABLED
 GLOBAL| Matrix multiplication library                                 ScaLAPACK
 GLOBAL| All-to-all communication in single precision                          F
 GLOBAL| FFTs using library dependent lengths                                  F
 GLOBAL| Grid backend                                                       AUTO
 GLOBAL| Global print level                                                  LOW
 GLOBAL| MPI I/O enabled                                                       T
 GLOBAL| Total number of message passing processes                            16
 GLOBAL| Number of threads for this process                                    1
 GLOBAL| This output is from process                                           0
 GLOBAL| Stack size for threads created by OpenMP (OMP_STACKSIZE)        default
 GLOBAL| CPU model name                          AMD EPYC 7513 32-Core Processor

 MEMORY| system memory details [Kb]
 MEMORY|                        rank 0           min           max       average
 MEMORY| MemTotal            131832644     131832644     131832644     131832644
 MEMORY| MemFree             118340024     118340024     118340024     118340024
 MEMORY| Buffers                121124        121124        121124        121124
 MEMORY| Cached                6593740       6593740       6593740       6593740
 MEMORY| Slab                   848304        848304        848304        848304
 MEMORY| SReclaimable           162244        162244        162244        162244
 MEMORY| MemLikelyFree       125217132     125217132     125217132     125217132


 GENERATE|  Preliminary Number of Bonds generated:                             0
 GENERATE|  Achieved consistency in connectivity generation.

 *******************************************************************************
 *******************************************************************************
 **                                                                           **
 **     #####                         ##              ##                      **
 **    ##   ##            ##          ##              ##                      **
 **   ##     ##                       ##            ######                    **
 **   ##     ##  ##   ##  ##   #####  ##  ##   ####   ##    #####    #####    **
 **   ##     ##  ##   ##  ##  ##      ## ##   ##      ##   ##   ##  ##   ##   **
 **   ##  ## ##  ##   ##  ##  ##      ####     ###    ##   ######   ######    **
 **    ##  ###   ##   ##  ##  ##      ## ##      ##   ##   ##       ##        **
 **     #######   #####   ##   #####  ##  ##  ####    ##    #####   ##        **
 **           ##                                                    ##        **
 **                                                                           **
 **                                                ... make the atoms dance   **
 **                                                                           **
 **            Copyright (C) by CP2K developers group (2000-2022)             **
 **                      J. Chem. Phys. 152, 194103 (2020)                    **
 **                                                                           **
 *******************************************************************************


 TOTAL NUMBERS AND MAXIMUM NUMBERS

  Total number of            - Atomic kinds:                                   4
                             - Atoms:                                        117
                             - Shell sets:                                   117
                             - Shells:                                       583
                             - Primitive Cartesian functions:                587
                             - Cartesian basis functions:                   1624
                             - Spherical basis functions:                   1509

  Maximum angular momentum of- Orbital basis functions:                        2
                             - Local part of the GTH pseudopotential:          2
                             - Non-local part of the GTH pseudopotential:      1


 SCF PARAMETERS         Density guess:                                    ATOMIC
                        --------------------------------------------------------
                        max_scf:                                             100
                        max_scf_history:                                       0
                        max_diis:                                              4
                        --------------------------------------------------------
                        eps_scf:                                        3.00E-07
                        eps_scf_history:                                0.00E+00
                        eps_diis:                                       1.00E-01
                        eps_eigval:                                     1.00E-05
                        --------------------------------------------------------
                        level_shift [a.u.]:                             0.000000
                        added MOs                                       100    0
                        --------------------------------------------------------
                        Mixing method:                            BROYDEN_MIXING
                                                charge density mixing in g-space
                        --------------------------------------------------------
                        Smear method:                                FERMI_DIRAC
                        Electronic temperature [K]:                        300.0
                        Electronic temperature [a.u.]:                  9.50E-04
                        Accuracy threshold:                             1.00E-10
                        --------------------------------------------------------
                        Outer loop SCF in use 
                        No variables optimised in outer loop
                        eps_scf                                         1.00E-06
                        max_scf                                               30
                        DIIS optimization
                        DIIS buffer length                                     3
                        step_size                                       5.00E-01

 -------------------------------------------------------------------------------
 -                                                                             -
 -  BSSE CALCULATION         FRAGMENT CONF: 10        FRAGMENT SUBCONF: 10     -
 -                           CHARGE =     0           MULTIPLICITY =     0     -
 -                                                                             -
 -                 ATOM INDEX                              ATOM NAME           -
 -                 ----------                              ---------           -
 -                      1                                   C                  -
 -                      2                                   C                  -
 -                      3                                   C                  -
 -                      4                                   C                  -
 -                      5                                   C                  -
 -                      6                                   C                  -
 -                      7                                   C                  -
 -                      8                                   C                  -
 -                      9                                   C                  -
 -                     10                                   C                  -
 -                     11                                   C                  -
 -                     12                                   C                  -
 -                     13                                   C                  -
 -                     14                                   C                  -
 -                     15                                   C                  -
 -                     16                                   C                  -
 -                     17                                   C                  -
 -                     18                                   C                  -
 -                     19                                   C                  -
 -                     20                                   C                  -
 -                     21                                   C                  -
 -                     22                                   C                  -
 -                     23                                   C                  -
 -                     24                                   C                  -
 -                     25                                   C                  -
 -                     26                                   C                  -
 -                     27                                   C                  -
 -                     28                                   C                  -
 -                     29                                   C                  -
 -                     30                                   C                  -
 -                     31                                   C                  -
 -                     32                                   C                  -
 -                     33                                   C                  -
 -                     34                                   C                  -
 -                     35                                   C                  -
 -                     36                                   C                  -
 -                     37                                   C                  -
 -                     38                                   C                  -
 -                     39                                   C                  -
 -                     40                                   C                  -
 -                     41                                   C                  -
 -                     42                                   C                  -
 -                     43                                   C                  -
 -                     44                                   C                  -
 -                     45                                   C                  -
 -                     46                                   C                  -
 -                     47                                   C                  -
 -                     48                                   C                  -
 -                     49                                   C                  -
 -                     50                                   C                  -
 -                     51                                   C                  -
 -                     52                                   C                  -
 -                     53                                   C                  -
 -                     54                                   C                  -
 -                     55                                   C                  -
 -                     56                                   C                  -
 -                     57                                   C                  -
 -                     58                                   C                  -
 -                     59                                   C                  -
 -                     60                                   C                  -
 -                     61                                   C                  -
 -                     62                                   C                  -
 -                     63                                   C                  -
 -                     64                                   C                  -
 -                     65                                   C                  -
 -                     66                                   C                  -
 -                     67                                   C                  -
 -                     68                                   C                  -
 -                     69                                   C                  -
 -                     70                                   C                  -
 -                     71                                   C                  -
 -                     72                                   C                  -
 -                     73                                   C                  -
 -                     74                                   C                  -
 -                     75                                   C                  -
 -                     76                                   C                  -
 -                     77                                   C                  -
 -                     78                                   C                  -
 -                     79                                   C                  -
 -                     80                                   C                  -
 -                     81                                   C                  -
 -                     82                                   C                  -
 -                     83                                   C                  -
 -                     84                                   C                  -
 -                     85                                   C                  -
 -                     86                                   C                  -
 -                     87                                   C                  -
 -                     88                                   C                  -
 -                     89                                   C                  -
 -                     90                                   C                  -
 -                     91                                   C                  -
 -                     92                                   C                  -
 -                     93                                   C                  -
 -                     94                                   C                  -
 -                     95                                   C                  -
 -                     96                                   C                  -
 -                     97                                   C                  -
 -                     98                                   C                  -
 -                     99                                   C                  -
 -                    100                                   C                  -
 -                    101                                   C                  -
 -                    102                                   C                  -
 -                    103                                   C                  -
 -                    104                                   C                  -
 -                    105                                   C                  -
 -                    106                                   C                  -
 -                    107                                   C                  -
 -                    108                                   C                  -
 -                    109                                   C                  -
 -                    110                                   C                  -
 -                    111                                   C                  -
 -                    112                                   C                  -
 -                    113                                   C                  -
 -                    114                                   O                  -
 -                    115                                   O                  -
 -                    116                                   H                  -
 -------------------------------------------------------------------------------

 *******************************************************************************
 *******************************************************************************
 **                                                                           **
 **     #####                         ##              ##                      **
 **    ##   ##            ##          ##              ##                      **
 **   ##     ##                       ##            ######                    **
 **   ##     ##  ##   ##  ##   #####  ##  ##   ####   ##    #####    #####    **
 **   ##     ##  ##   ##  ##  ##      ## ##   ##      ##   ##   ##  ##   ##   **
 **   ##  ## ##  ##   ##  ##  ##      ####     ###    ##   ######   ######    **
 **    ##  ###   ##   ##  ##  ##      ## ##      ##   ##   ##       ##        **
 **     #######   #####   ##   #####  ##  ##  ####    ##    #####   ##        **
 **           ##                                                    ##        **
 **                                                                           **
 **                                                ... make the atoms dance   **
 **                                                                           **
 **            Copyright (C) by CP2K developers group (2000-2022)             **
 **                      J. Chem. Phys. 152, 194103 (2020)                    **
 **                                                                           **
 *******************************************************************************


 TOTAL NUMBERS AND MAXIMUM NUMBERS

  Total number of            - Atomic kinds:                                   3
                             - Atoms:                                        116
                             - Shell sets:                                   116
                             - Shells:                                       578
                             - Primitive Cartesian functions:                580
                             - Cartesian basis functions:                   1615
                             - Spherical basis functions:                   1500

  Maximum angular momentum of- Orbital basis functions:                        2
                             - Local part of the GTH pseudopotential:          2
                             - Non-local part of the GTH pseudopotential:      0


 SCF PARAMETERS         Density guess:                                    ATOMIC
                        --------------------------------------------------------
                        max_scf:                                             100
                        max_scf_history:                                       0
                        max_diis:                                              4
                        --------------------------------------------------------
                        eps_scf:                                        3.00E-07
                        eps_scf_history:                                0.00E+00
                        eps_diis:                                       1.00E-01
                        eps_eigval:                                     1.00E-05
                        --------------------------------------------------------
                        level_shift [a.u.]:                             0.000000
                        added MOs                                       100    0
                        --------------------------------------------------------
                        Mixing method:                            BROYDEN_MIXING
                                                charge density mixing in g-space
                        --------------------------------------------------------
                        Smear method:                                FERMI_DIRAC
                        Electronic temperature [K]:                        300.0
                        Electronic temperature [a.u.]:                  9.50E-04
                        Accuracy threshold:                             1.00E-10
                        --------------------------------------------------------
                        Outer loop SCF in use 
                        No variables optimised in outer loop
                        eps_scf                                         1.00E-06
                        max_scf                                               30
                        DIIS optimization
                        DIIS buffer length                                     3
                        step_size                                       5.00E-01

 Number of electrons:                                                        465
 Number of occupied orbitals:                                                233
 Number of molecular orbitals:                                               333

 Number of orbital functions:                                               1500
 Number of independent orbital functions:                                   1500

 Extrapolation method: initial_guess


 SCF WAVEFUNCTION OPTIMIZATION

  Step     Update method      Time    Convergence         Total energy    Change
  ------------------------------------------------------------------------------
     1 NoMix/Diag. 0.10E+00    7.8     0.99480382      -670.1009546786 -6.70E+02
     2 Broy./Diag. 0.10E+00    8.4     0.18267281      -645.4224605347  2.47E+01
     3 Broy./Diag. 0.10E+00    5.9     0.48346136      -654.7979239285 -9.38E+00
     4 Broy./Diag. 0.10E+00    5.1     0.13136282      -663.9297880131 -9.13E+00
     5 Broy./Diag. 0.10E+00    5.1     0.42250561      -669.0672292217 -5.14E+00
     6 Broy./Diag. 0.10E+00    5.0     0.08789644      -671.7230943546 -2.66E+00
     7 Broy./Diag. 0.10E+00    5.1     0.14205532      -673.1425690721 -1.42E+00
     8 Broy./Diag. 0.10E+00    5.2     0.07710973      -673.6196254081 -4.77E-01
     9 Broy./Diag. 0.10E+00    5.3     0.06826425      -673.7531612901 -1.34E-01
    10 Broy./Diag. 0.10E+00    5.4     0.02374867      -673.8067236098 -5.36E-02
    11 Broy./Diag. 0.10E+00    6.1     0.02178292      -673.9714325031 -1.65E-01
    12 Broy./Diag. 0.10E+00    5.9     0.01945390      -674.1905253508 -2.19E-01
    13 Broy./Diag. 0.10E+00    6.0     0.00775089      -674.2774864134 -8.70E-02
    14 Broy./Diag. 0.10E+00    5.5     0.01384987      -674.3693888843 -9.19E-02
    15 Broy./Diag. 0.10E+00    5.6     0.00295831      -674.4361354358 -6.67E-02
    16 Broy./Diag. 0.10E+00    5.6     0.00579673      -674.5166315941 -8.05E-02
    17 Broy./Diag. 0.10E+00    5.7     0.00104205      -674.5601144749 -4.35E-02
    18 Broy./Diag. 0.10E+00    5.9     0.00163799      -674.5375434228  2.26E-02
    19 Broy./Diag. 0.10E+00    5.5     0.00114863      -674.5466366505 -9.09E-03
    20 Broy./Diag. 0.10E+00    5.8     0.00110752      -674.5750796734 -2.84E-02
    21 Broy./Diag. 0.10E+00    5.4     0.00110507      -674.5913298322 -1.63E-02
    22 Broy./Diag. 0.10E+00    6.1     0.00066433      -674.5909932830  3.37E-04
    23 Broy./Diag. 0.10E+00    5.8     0.00075584      -674.5902774860  7.16E-04
    24 Broy./Diag. 0.10E+00    5.8     0.00061020      -674.5897964453  4.81E-04
    25 Broy./Diag. 0.10E+00    5.6     0.00030702      -674.5864470066  3.35E-03
    26 Broy./Diag. 0.10E+00    5.5     0.00042500      -674.5884527728 -2.01E-03
    27 Broy./Diag. 0.10E+00    5.5     0.00022587      -674.5920052206 -3.55E-03
    28 Broy./Diag. 0.10E+00    5.6     0.00031559      -674.5948427641 -2.84E-03
    29 Broy./Diag. 0.10E+00    5.7     0.00032892      -674.5956987053 -8.56E-04
    30 Broy./Diag. 0.10E+00    6.0     0.00011558      -674.5973774588 -1.68E-03
    31 Broy./Diag. 0.10E+00    6.0     0.00020670      -674.6011560010 -3.78E-03
    32 Broy./Diag. 0.10E+00    5.7     0.00015898      -674.6052018161 -4.05E-03
    33 Broy./Diag. 0.10E+00    5.8     0.00010544      -674.6071651673 -1.96E-03
    34 Broy./Diag. 0.10E+00    5.4     0.00013745      -674.6078135381 -6.48E-04
    35 Broy./Diag. 0.10E+00    5.5     0.00008971      -674.6081861536 -3.73E-04
    36 Broy./Diag. 0.10E+00    6.1     0.00005315      -674.6079663758  2.20E-04
    37 Broy./Diag. 0.10E+00    5.8     0.00004525      -674.6077015662  2.65E-04
    38 Broy./Diag. 0.10E+00    5.7     0.00005351      -674.6078691255 -1.68E-04
    39 Broy./Diag. 0.10E+00    5.5     0.00002841      -674.6080104069 -1.41E-04
    40 Broy./Diag. 0.10E+00    5.9     0.00003555      -674.6082801826 -2.70E-04
    41 Broy./Diag. 0.10E+00    5.4     0.00001945      -674.6085355487 -2.55E-04
    42 Broy./Diag. 0.10E+00    5.7     0.00002883      -674.6089030961 -3.68E-04
    43 Broy./Diag. 0.10E+00    5.6     0.00002003      -674.6093188754 -4.16E-04
    44 Broy./Diag. 0.10E+00    5.1     0.00001328      -674.6095950772 -2.76E-04
    45 Broy./Diag. 0.10E+00    5.0     0.00001471      -674.6096536074 -5.85E-05
    46 Broy./Diag. 0.10E+00    5.2     0.00001488      -674.6095697618  8.38E-05
    47 Broy./Diag. 0.10E+00    5.2     0.00001132      -674.6094352083  1.35E-04
    48 Broy./Diag. 0.10E+00    4.8     0.00001169      -674.6092741581  1.61E-04
    49 Broy./Diag. 0.10E+00    5.0     0.00001018      -674.6091462218  1.28E-04
    50 Broy./Diag. 0.10E+00    4.8     0.00000781      -674.6090812774  6.49E-05
    51 Broy./Diag. 0.10E+00    5.4     0.00000671      -674.6090506736  3.06E-05
    52 Broy./Diag. 0.10E+00    5.1     0.00000609      -674.6090355627  1.51E-05
    53 Broy./Diag. 0.10E+00    5.0     0.00000298      -674.6090159680  1.96E-05
    54 Broy./Diag. 0.10E+00    5.0     0.00000481      -674.6090291363 -1.32E-05
    55 Broy./Diag. 0.10E+00    4.9     0.00000339      -674.6090526245 -2.35E-05
    56 Broy./Diag. 0.10E+00    5.0     0.00000246      -674.6090571851 -4.56E-06
    57 Broy./Diag. 0.10E+00    5.2     0.00000370      -674.6090397018  1.75E-05
    58 Broy./Diag. 0.10E+00    5.1     0.00000286      -674.6090020663  3.76E-05
    59 Broy./Diag. 0.10E+00    5.1     0.00000216      -674.6089642677  3.78E-05
    60 Broy./Diag. 0.10E+00    5.1     0.00000179      -674.6089367801  2.75E-05
    61 Broy./Diag. 0.10E+00    4.9     0.00000221      -674.6089128967  2.39E-05
    62 Broy./Diag. 0.10E+00    5.1     0.00000140      -674.6088891283  2.38E-05
    63 Broy./Diag. 0.10E+00    4.9     0.00000171      -674.6088668021  2.23E-05
    64 Broy./Diag. 0.10E+00    5.1     0.00000115      -674.6088570917  9.71E-06
    65 Broy./Diag. 0.10E+00    5.1     0.00000092      -674.6088609550 -3.86E-06
    66 Broy./Diag. 0.10E+00    5.0     0.00000106      -674.6088625601 -1.61E-06
    67 Broy./Diag. 0.10E+00    5.1     0.00000073      -674.6088587574  3.80E-06
    68 Broy./Diag. 0.10E+00    5.1     0.00000078      -674.6088504838  8.27E-06
    69 Broy./Diag. 0.10E+00    5.0     0.00000096      -674.6088418696  8.61E-06
    70 Broy./Diag. 0.10E+00    5.0     0.00000054      -674.6088373708  4.50E-06
    71 Broy./Diag. 0.10E+00    5.1     0.00000047      -674.6088354141  1.96E-06
    72 Broy./Diag. 0.10E+00    5.0     0.00000028      -674.6088343112  1.10E-06

  *** SCF run converged in    72 steps ***


  Electronic density on regular grids:       -465.0000000636       -0.0000000636
  Core density on regular grids:              464.9999999996       -0.0000000004
  Total charge density on r-space grids:       -0.0000000640
  Total charge density g-space grids:          -0.0000000640

  Overlap energy of the core charge distribution:               0.00002165804050
  Self energy of the core charge distribution:              -1591.31878384133620
  Core Hamiltonian energy:                                    493.80614881204065
  Hartree energy:                                             626.49772179280887
  Exchange-correlation energy:                               -203.46953222040119
  Dispersion energy:                                           -0.12233417741450
  Electronic entropic energy:                                  -0.00207633623528
  Fermi energy:                                                -0.15582233592423

  Total energy:                                              -674.60883431124273

  outer SCF iter =    1 RMS gradient =   0.28E-06 energy =       -674.6088343112
  outer SCF loop converged in   1 iterations or   72 steps


 *** WARNING in qs_loc_utils.F:1500 :: User requested the calculation of ***
 *** the localized wavefunction but the section LOCALIZE was not         ***
 *** specified. Localization will not be performed!                      ***


 -------------------------------------------------------------------------------
 -                                                                             -
 -  BSSE CALCULATION         FRAGMENT CONF: 01        FRAGMENT SUBCONF: 01     -
 -                           CHARGE =     0           MULTIPLICITY =     0     -
 -                                                                             -
 -                 ATOM INDEX                              ATOM NAME           -
 -                 ----------                              ---------           -
 -                    117                                   Na                 -
 -------------------------------------------------------------------------------

 *******************************************************************************
 *******************************************************************************
 **                                                                           **
 **     #####                         ##              ##                      **
 **    ##   ##            ##          ##              ##                      **
 **   ##     ##                       ##            ######                    **
 **   ##     ##  ##   ##  ##   #####  ##  ##   ####   ##    #####    #####    **
 **   ##     ##  ##   ##  ##  ##      ## ##   ##      ##   ##   ##  ##   ##   **
 **   ##  ## ##  ##   ##  ##  ##      ####     ###    ##   ######   ######    **
 **    ##  ###   ##   ##  ##  ##      ## ##      ##   ##   ##       ##        **
 **     #######   #####   ##   #####  ##  ##  ####    ##    #####   ##        **
 **           ##                                                    ##        **
 **                                                                           **
 **                                                ... make the atoms dance   **
 **                                                                           **
 **            Copyright (C) by CP2K developers group (2000-2022)             **
 **                      J. Chem. Phys. 152, 194103 (2020)                    **
 **                                                                           **
 *******************************************************************************

 *** WARNING in qs_environment.F:1486 :: More added MOs requested than     ***
 *** available. The full set of unoccupied MOs will be used. Use           ***
 *** 'ADDED_MOS -1' to always use all available MOs and to get rid of this ***
 *** warning.                                                              ***



 TOTAL NUMBERS AND MAXIMUM NUMBERS

  Total number of            - Atomic kinds:                                   1
                             - Atoms:                                          1
                             - Shell sets:                                     1
                             - Shells:                                         5
                             - Primitive Cartesian functions:                  7
                             - Cartesian basis functions:                      9
                             - Spherical basis functions:                      9

  Maximum angular momentum of- Orbital basis functions:                        1
                             - Local part of the GTH pseudopotential:          2
                             - Non-local part of the GTH pseudopotential:      1


 SCF PARAMETERS         Density guess:                                    ATOMIC
                        --------------------------------------------------------
                        max_scf:                                             100
                        max_scf_history:                                       0
                        max_diis:                                              4
                        --------------------------------------------------------
                        eps_scf:                                        3.00E-07
                        eps_scf_history:                                0.00E+00
                        eps_diis:                                       1.00E-01
                        eps_eigval:                                     1.00E-05
                        --------------------------------------------------------
                        level_shift [a.u.]:                             0.000000
                        added MOs                                         4    0
                        --------------------------------------------------------
                        Mixing method:                            BROYDEN_MIXING
                                                charge density mixing in g-space
                        --------------------------------------------------------
                        Smear method:                                FERMI_DIRAC
                        Electronic temperature [K]:                        300.0
                        Electronic temperature [a.u.]:                  9.50E-04
                        Accuracy threshold:                             1.00E-10
                        --------------------------------------------------------
                        Outer loop SCF in use 
                        No variables optimised in outer loop
                        eps_scf                                         1.00E-06
                        max_scf                                               30
                        DIIS optimization
                        DIIS buffer length                                     3
                        step_size                                       5.00E-01

 Number of electrons:                                                          9
 Number of occupied orbitals:                                                  5
 Number of molecular orbitals:                                                 9

 Number of orbital functions:                                                  9
 Number of independent orbital functions:                                      9

 Extrapolation method: initial_guess


 SCF WAVEFUNCTION OPTIMIZATION

  Step     Update method      Time    Convergence         Total energy    Change
  ------------------------------------------------------------------------------
     1 NoMix/Diag. 0.10E+00    1.0     0.02076852       -47.1581591335 -4.72E+01
     2 Broy./Diag. 0.10E+00    2.0     0.00009441       -47.1166561874  4.15E-02
     3 Broy./Diag. 0.10E+00    2.2     0.00097540       -47.1565362644 -3.99E-02
     4 Broy./Diag. 0.10E+00    2.3     0.00002355       -47.1640122333 -7.48E-03
     5 Broy./Diag. 0.10E+00    2.3     0.00025334       -47.1639324904  7.97E-05
     6 Broy./Diag. 0.10E+00    2.3     0.00000894       -47.1640083088 -7.58E-05
     7 Broy./Diag. 0.10E+00    2.4     0.00014889       -47.1622188414  1.79E-03
     8 Broy./Diag. 0.10E+00    2.4     0.00001853       -47.1612216496  9.97E-04
     9 Broy./Diag. 0.10E+00    2.6     0.00019249       -47.1606083976  6.13E-04
    10 Broy./Diag. 0.10E+00    2.8     0.00000941       -47.1602401490  3.68E-04
    11 Broy./Diag. 0.10E+00    2.8     0.00009316       -47.1600584797  1.82E-04
    12 Broy./Diag. 0.10E+00    2.7     0.00000187       -47.1600157185  4.28E-05
    13 Broy./Diag. 0.10E+00    2.6     0.00000541       -47.1601292349 -1.14E-04
    14 Broy./Diag. 0.10E+00    2.7     0.00000081       -47.1601492431 -2.00E-05
    15 Broy./Diag. 0.10E+00    2.8     0.00001180       -47.1599743556  1.75E-04
    16 Broy./Diag. 0.10E+00    2.6     0.00000236       -47.1599506459  2.37E-05
    17 Broy./Diag. 0.10E+00    2.7     0.00000231       -47.1599974769 -4.68E-05
    18 Broy./Diag. 0.10E+00    2.7     0.00000201       -47.1600423940 -4.49E-05
    19 Broy./Diag. 0.10E+00    2.6     0.00000191       -47.1600607231 -1.83E-05
    20 Broy./Diag. 0.10E+00    2.7     0.00000184       -47.1600536990  7.02E-06
    21 Broy./Diag. 0.10E+00    2.6     0.00000268       -47.1600325220  2.12E-05
    22 Broy./Diag. 0.10E+00    2.7     0.00000331       -47.1600085296  2.40E-05
    23 Broy./Diag. 0.10E+00    2.6     0.00000349       -47.1599889496  1.96E-05
    24 Broy./Diag. 0.10E+00    2.7     0.00000080       -47.1599878786  1.07E-06
    25 Broy./Diag. 0.10E+00    2.7     0.00000032       -47.1599977341 -9.86E-06
    26 Broy./Diag. 0.10E+00    2.6     0.00000030       -47.1599924683  5.27E-06
    27 Broy./Diag. 0.10E+00    2.7     0.00000070       -47.1599797797  1.27E-05
    28 Broy./Diag. 0.10E+00    2.6     0.00000073       -47.1599753001  4.48E-06
    29 Broy./Diag. 0.10E+00    2.6     0.00000060       -47.1599755648 -2.65E-07
    30 Broy./Diag. 0.10E+00    2.6     0.00000028       -47.1599786009 -3.04E-06

  *** SCF run converged in    30 steps ***


  Electronic density on regular grids:         -9.0001243749       -0.0001243749
  Core density on regular grids:                9.0000000000       -0.0000000000
  Total charge density on r-space grids:       -0.0001243749
  Total charge density g-space grids:          -0.0001243749

  Overlap energy of the core charge distribution:               0.00000000000000
  Self energy of the core charge distribution:                -96.60649019442629
  Core Hamiltonian energy:                                     29.76067447877477
  Hartree energy:                                              26.73201689437162
  Exchange-correlation energy:                                 -7.04486153334633
  Dispersion energy:                                           -0.00000120476189
  Electronic entropic energy:                                  -0.00131704147593
  Fermi energy:                                                -0.09158554112637

  Total energy:                                               -47.15997860086404

  outer SCF iter =    1 RMS gradient =   0.28E-06 energy =        -47.1599786009
  outer SCF loop converged in   1 iterations or   30 steps


 *** WARNING in qs_loc_utils.F:1500 :: User requested the calculation of ***
 *** the localized wavefunction but the section LOCALIZE was not         ***
 *** specified. Localization will not be performed!                      ***


 -------------------------------------------------------------------------------
 -                                                                             -
 -  BSSE CALCULATION         FRAGMENT CONF: 11        FRAGMENT SUBCONF: 10     -
 -                           CHARGE =     0           MULTIPLICITY =     0     -
 -                                                                             -
 -                 ATOM INDEX                              ATOM NAME           -
 -                 ----------                              ---------           -
 -                      1                                   C                  -
 -                      2                                   C                  -
 -                      3                                   C                  -
 -                      4                                   C                  -
 -                      5                                   C                  -
 -                      6                                   C                  -
 -                      7                                   C                  -
 -                      8                                   C                  -
 -                      9                                   C                  -
 -                     10                                   C                  -
 -                     11                                   C                  -
 -                     12                                   C                  -
 -                     13                                   C                  -
 -                     14                                   C                  -
 -                     15                                   C                  -
 -                     16                                   C                  -
 -                     17                                   C                  -
 -                     18                                   C                  -
 -                     19                                   C                  -
 -                     20                                   C                  -
 -                     21                                   C                  -
 -                     22                                   C                  -
 -                     23                                   C                  -
 -                     24                                   C                  -
 -                     25                                   C                  -
 -                     26                                   C                  -
 -                     27                                   C                  -
 -                     28                                   C                  -
 -                     29                                   C                  -
 -                     30                                   C                  -
 -                     31                                   C                  -
 -                     32                                   C                  -
 -                     33                                   C                  -
 -                     34                                   C                  -
 -                     35                                   C                  -
 -                     36                                   C                  -
 -                     37                                   C                  -
 -                     38                                   C                  -
 -                     39                                   C                  -
 -                     40                                   C                  -
 -                     41                                   C                  -
 -                     42                                   C                  -
 -                     43                                   C                  -
 -                     44                                   C                  -
 -                     45                                   C                  -
 -                     46                                   C                  -
 -                     47                                   C                  -
 -                     48                                   C                  -
 -                     49                                   C                  -
 -                     50                                   C                  -
 -                     51                                   C                  -
 -                     52                                   C                  -
 -                     53                                   C                  -
 -                     54                                   C                  -
 -                     55                                   C                  -
 -                     56                                   C                  -
 -                     57                                   C                  -
 -                     58                                   C                  -
 -                     59                                   C                  -
 -                     60                                   C                  -
 -                     61                                   C                  -
 -                     62                                   C                  -
 -                     63                                   C                  -
 -                     64                                   C                  -
 -                     65                                   C                  -
 -                     66                                   C                  -
 -                     67                                   C                  -
 -                     68                                   C                  -
 -                     69                                   C                  -
 -                     70                                   C                  -
 -                     71                                   C                  -
 -                     72                                   C                  -
 -                     73                                   C                  -
 -                     74                                   C                  -
 -                     75                                   C                  -
 -                     76                                   C                  -
 -                     77                                   C                  -
 -                     78                                   C                  -
 -                     79                                   C                  -
 -                     80                                   C                  -
 -                     81                                   C                  -
 -                     82                                   C                  -
 -                     83                                   C                  -
 -                     84                                   C                  -
 -                     85                                   C                  -
 -                     86                                   C                  -
 -                     87                                   C                  -
 -                     88                                   C                  -
 -                     89                                   C                  -
 -                     90                                   C                  -
 -                     91                                   C                  -
 -                     92                                   C                  -
 -                     93                                   C                  -
 -                     94                                   C                  -
 -                     95                                   C                  -
 -                     96                                   C                  -
 -                     97                                   C                  -
 -                     98                                   C                  -
 -                     99                                   C                  -
 -                    100                                   C                  -
 -                    101                                   C                  -
 -                    102                                   C                  -
 -                    103                                   C                  -
 -                    104                                   C                  -
 -                    105                                   C                  -
 -                    106                                   C                  -
 -                    107                                   C                  -
 -                    108                                   C                  -
 -                    109                                   C                  -
 -                    110                                   C                  -
 -                    111                                   C                  -
 -                    112                                   C                  -
 -                    113                                   C                  -
 -                    114                                   O                  -
 -                    115                                   O                  -
 -                    116                                   H                  -
 -                    117                                   Na_ghost           -
 -------------------------------------------------------------------------------

 *******************************************************************************
 *******************************************************************************
 **                                                                           **
 **     #####                         ##              ##                      **
 **    ##   ##            ##          ##              ##                      **
 **   ##     ##                       ##            ######                    **
 **   ##     ##  ##   ##  ##   #####  ##  ##   ####   ##    #####    #####    **
 **   ##     ##  ##   ##  ##  ##      ## ##   ##      ##   ##   ##  ##   ##   **
 **   ##  ## ##  ##   ##  ##  ##      ####     ###    ##   ######   ######    **
 **    ##  ###   ##   ##  ##  ##      ## ##      ##   ##   ##       ##        **
 **     #######   #####   ##   #####  ##  ##  ####    ##    #####   ##        **
 **           ##                                                    ##        **
 **                                                                           **
 **                                                ... make the atoms dance   **
 **                                                                           **
 **            Copyright (C) by CP2K developers group (2000-2022)             **
 **                      J. Chem. Phys. 152, 194103 (2020)                    **
 **                                                                           **
 *******************************************************************************


 TOTAL NUMBERS AND MAXIMUM NUMBERS

  Total number of            - Atomic kinds:                                   4
                             - Atoms:                                        117
                             - Shell sets:                                   117
                             - Shells:                                       583
                             - Primitive Cartesian functions:                587
                             - Cartesian basis functions:                   1624
                             - Spherical basis functions:                   1509

  Maximum angular momentum of- Orbital basis functions:                        2
                             - Local part of the GTH pseudopotential:          2
                             - Non-local part of the GTH pseudopotential:      0


 SCF PARAMETERS         Density guess:                                    ATOMIC
                        --------------------------------------------------------
                        max_scf:                                             100
                        max_scf_history:                                       0
                        max_diis:                                              4
                        --------------------------------------------------------
                        eps_scf:                                        3.00E-07
                        eps_scf_history:                                0.00E+00
                        eps_diis:                                       1.00E-01
                        eps_eigval:                                     1.00E-05
                        --------------------------------------------------------
                        level_shift [a.u.]:                             0.000000
                        added MOs                                       100    0
                        --------------------------------------------------------
                        Mixing method:                            BROYDEN_MIXING
                                                charge density mixing in g-space
                        --------------------------------------------------------
                        Smear method:                                FERMI_DIRAC
                        Electronic temperature [K]:                        300.0
                        Electronic temperature [a.u.]:                  9.50E-04
                        Accuracy threshold:                             1.00E-10
                        --------------------------------------------------------
                        Outer loop SCF in use 
                        No variables optimised in outer loop
                        eps_scf                                         1.00E-06
                        max_scf                                               30
                        DIIS optimization
                        DIIS buffer length                                     3
                        step_size                                       5.00E-01

 Number of electrons:                                                        465
 Number of occupied orbitals:                                                233
 Number of molecular orbitals:                                               333

 Number of orbital functions:                                               1509
 Number of independent orbital functions:                                   1509

 Extrapolation method: initial_guess


 SCF WAVEFUNCTION OPTIMIZATION

  Step     Update method      Time    Convergence         Total energy    Change
  ------------------------------------------------------------------------------
     1 NoMix/Diag. 0.10E+00    2.9     0.99535530      -670.1009546786 -6.70E+02
     2 Broy./Diag. 0.10E+00    4.5     0.18025611      -645.4497200450  2.47E+01
     3 Broy./Diag. 0.10E+00    4.4     0.43219596      -654.7561496649 -9.31E+00
     4 Broy./Diag. 0.10E+00    4.8     0.14167020      -664.1094082158 -9.35E+00
     5 Broy./Diag. 0.10E+00    4.9     0.43683096      -669.0208414772 -4.91E+00
     6 Broy./Diag. 0.10E+00    4.6     0.06945915      -671.5729025642 -2.55E+00
     7 Broy./Diag. 0.10E+00    4.9     0.16261485      -673.0793873539 -1.51E+00
     8 Broy./Diag. 0.10E+00    4.9     0.06347685      -673.6192745189 -5.40E-01
     9 Broy./Diag. 0.10E+00    5.0     0.06462776      -673.7706786946 -1.51E-01
    10 Broy./Diag. 0.10E+00    5.0     0.02324873      -673.8187131687 -4.80E-02
    11 Broy./Diag. 0.10E+00    5.2     0.02291006      -673.9935719618 -1.75E-01
    12 Broy./Diag. 0.10E+00    5.5     0.01745054      -674.2094527270 -2.16E-01
    13 Broy./Diag. 0.10E+00    5.2     0.00697653      -674.2834355192 -7.40E-02
    14 Broy./Diag. 0.10E+00    4.8     0.01178704      -674.3788883048 -9.55E-02
    15 Broy./Diag. 0.10E+00    5.0     0.00237228      -674.4477666929 -6.89E-02
    16 Broy./Diag. 0.10E+00    5.1     0.00533274      -674.5081080959 -6.03E-02
    17 Broy./Diag. 0.10E+00    5.4     0.00189622      -674.5482393114 -4.01E-02
    18 Broy./Diag. 0.10E+00    5.6     0.00355000      -674.5628017082 -1.46E-02
    19 Broy./Diag. 0.10E+00    5.5     0.00185372      -674.5944696857 -3.17E-02
    20 Broy./Diag. 0.10E+00    5.7     0.00094850      -674.6127233680 -1.83E-02
    21 Broy./Diag. 0.10E+00    5.0     0.00181932      -674.5984199310  1.43E-02
    22 Broy./Diag. 0.10E+00    5.3     0.00123505      -674.5754950066  2.29E-02
    23 Broy./Diag. 0.10E+00    5.3     0.00056151      -674.5705948503  4.90E-03
    24 Broy./Diag. 0.10E+00    4.9     0.00106328      -674.5754177584 -4.82E-03
    25 Broy./Diag. 0.10E+00    5.4     0.00019727      -674.5861252983 -1.07E-02
    26 Broy./Diag. 0.10E+00    5.1     0.00060817      -674.5981599008 -1.20E-02
    27 Broy./Diag. 0.10E+00    5.2     0.00035579      -674.6062078202 -8.05E-03
    28 Broy./Diag. 0.10E+00    4.9     0.00015876      -674.6086180267 -2.41E-03
    29 Broy./Diag. 0.10E+00    5.3     0.00032091      -674.6081658881  4.52E-04
    30 Broy./Diag. 0.10E+00    4.9     0.00017143      -674.6070651076  1.10E-03
    31 Broy./Diag. 0.10E+00    5.0     0.00020690      -674.6064937161  5.71E-04
    32 Broy./Diag. 0.10E+00    5.3     0.00016510      -674.6062762683  2.17E-04
    33 Broy./Diag. 0.10E+00    5.1     0.00009951      -674.6064929995 -2.17E-04
    34 Broy./Diag. 0.10E+00    5.0     0.00006863      -674.6067710573 -2.78E-04
    35 Broy./Diag. 0.10E+00    5.1     0.00011023      -674.6074811837 -7.10E-04
    36 Broy./Diag. 0.10E+00    5.1     0.00004085      -674.6085940370 -1.11E-03
    37 Broy./Diag. 0.10E+00    5.0     0.00007184      -674.6098514350 -1.26E-03
    38 Broy./Diag. 0.10E+00    5.1     0.00004026      -674.6111273138 -1.28E-03
    39 Broy./Diag. 0.10E+00    5.0     0.00003450      -674.6120693173 -9.42E-04
    40 Broy./Diag. 0.10E+00    4.7     0.00005307      -674.6125832150 -5.14E-04
    41 Broy./Diag. 0.10E+00    5.2     0.00004645      -674.6125483304  3.49E-05
    42 Broy./Diag. 0.10E+00    5.1     0.00002997      -674.6121353511  4.13E-04
    43 Broy./Diag. 0.10E+00    5.0     0.00003824      -674.6116486070  4.87E-04
    44 Broy./Diag. 0.10E+00    5.0     0.00001959      -674.6112977744  3.51E-04
    45 Broy./Diag. 0.10E+00    5.0     0.00002707      -674.6110960227  2.02E-04
    46 Broy./Diag. 0.10E+00    4.9     0.00001290      -674.6110272250  6.88E-05
    47 Broy./Diag. 0.10E+00    5.1     0.00001282      -674.6110601502 -3.29E-05
    48 Broy./Diag. 0.10E+00    5.3     0.00000991      -674.6111711208 -1.11E-04
    49 Broy./Diag. 0.10E+00    5.2     0.00000752      -674.6113140531 -1.43E-04
    50 Broy./Diag. 0.10E+00    5.1     0.00001017      -674.6114133963 -9.93E-05
    51 Broy./Diag. 0.10E+00    4.9     0.00000764      -674.6114219430 -8.55E-06
    52 Broy./Diag. 0.10E+00    5.1     0.00000941      -674.6113678912  5.41E-05
    53 Broy./Diag. 0.10E+00    5.1     0.00000613      -674.6112818412  8.61E-05
    54 Broy./Diag. 0.10E+00    5.0     0.00000597      -674.6112051940  7.66E-05
    55 Broy./Diag. 0.10E+00    5.1     0.00000514      -674.6111420933  6.31E-05
    56 Broy./Diag. 0.10E+00    5.0     0.00000409      -674.6110956581  4.64E-05
    57 Broy./Diag. 0.10E+00    5.0     0.00000319      -674.6110552675  4.04E-05
    58 Broy./Diag. 0.10E+00    5.0     0.00000346      -674.6110233242  3.19E-05
    59 Broy./Diag. 0.10E+00    5.1     0.00000273      -674.6110047134  1.86E-05
    60 Broy./Diag. 0.10E+00    5.0     0.00000211      -674.6109976015  7.11E-06
    61 Broy./Diag. 0.10E+00    5.1     0.00000255      -674.6109994703 -1.87E-06
    62 Broy./Diag. 0.10E+00    5.1     0.00000246      -674.6110004328 -9.62E-07
    63 Broy./Diag. 0.10E+00    5.1     0.00000107      -674.6109966296  3.80E-06
    64 Broy./Diag. 0.10E+00    4.8     0.00000197      -674.6109899993  6.63E-06
    65 Broy./Diag. 0.10E+00    5.1     0.00000081      -674.6109800163  9.98E-06
    66 Broy./Diag. 0.10E+00    5.0     0.00000090      -674.6109701605  9.86E-06
    67 Broy./Diag. 0.10E+00    4.7     0.00000115      -674.6109583341  1.18E-05
    68 Broy./Diag. 0.10E+00    5.1     0.00000063      -674.6109477660  1.06E-05
    69 Broy./Diag. 0.10E+00    5.2     0.00000065      -674.6109414692  6.30E-06
    70 Broy./Diag. 0.10E+00    5.0     0.00000077      -674.6109381057  3.36E-06
    71 Broy./Diag. 0.10E+00    5.0     0.00000041      -674.6109372561  8.50E-07
    72 Broy./Diag. 0.10E+00    5.3     0.00000053      -674.6109393226 -2.07E-06
    73 Broy./Diag. 0.10E+00    5.2     0.00000056      -674.6109416004 -2.28E-06
    74 Broy./Diag. 0.10E+00    5.0     0.00000047      -674.6109431882 -1.59E-06
    75 Broy./Diag. 0.10E+00    5.4     0.00000044      -674.6109441535 -9.65E-07
    76 Broy./Diag. 0.10E+00    5.1     0.00000027      -674.6109440559  9.76E-08

  *** SCF run converged in    76 steps ***


  Electronic density on regular grids:       -465.0000000631       -0.0000000631
  Core density on regular grids:              464.9999999996       -0.0000000004
  Total charge density on r-space grids:       -0.0000000634
  Total charge density g-space grids:          -0.0000000634

  Overlap energy of the core charge distribution:               0.00002165804050
  Self energy of the core charge distribution:              -1591.31878384133620
  Core Hamiltonian energy:                                    493.78853829026360
  Hartree energy:                                             626.50539542837146
  Exchange-correlation energy:                               -203.46167931751879
  Dispersion energy:                                           -0.12233417741450
  Electronic entropic energy:                                  -0.00210209691690
  Fermi energy:                                                -0.15621842163168

  Total energy:                                              -674.61094405587130

  outer SCF iter =    1 RMS gradient =   0.27E-06 energy =       -674.6109440559
  outer SCF loop converged in   1 iterations or   76 steps


 *** WARNING in qs_loc_utils.F:1500 :: User requested the calculation of ***
 *** the localized wavefunction but the section LOCALIZE was not         ***
 *** specified. Localization will not be performed!                      ***


 -------------------------------------------------------------------------------
 -                                                                             -
 -  BSSE CALCULATION         FRAGMENT CONF: 11        FRAGMENT SUBCONF: 01     -
 -                           CHARGE =     0           MULTIPLICITY =     0     -
 -                                                                             -
 -                 ATOM INDEX                              ATOM NAME           -
 -                 ----------                              ---------           -
 -                      1                                   C_ghost            -
 -                      2                                   C_ghost            -
 -                      3                                   C_ghost            -
 -                      4                                   C_ghost            -
 -                      5                                   C_ghost            -
 -                      6                                   C_ghost            -
 -                      7                                   C_ghost            -
 -                      8                                   C_ghost            -
 -                      9                                   C_ghost            -
 -                     10                                   C_ghost            -
 -                     11                                   C_ghost            -
 -                     12                                   C_ghost            -
 -                     13                                   C_ghost            -
 -                     14                                   C_ghost            -
 -                     15                                   C_ghost            -
 -                     16                                   C_ghost            -
 -                     17                                   C_ghost            -
 -                     18                                   C_ghost            -
 -                     19                                   C_ghost            -
 -                     20                                   C_ghost            -
 -                     21                                   C_ghost            -
 -                     22                                   C_ghost            -
 -                     23                                   C_ghost            -
 -                     24                                   C_ghost            -
 -                     25                                   C_ghost            -
 -                     26                                   C_ghost            -
 -                     27                                   C_ghost            -
 -                     28                                   C_ghost            -
 -                     29                                   C_ghost            -
 -                     30                                   C_ghost            -
 -                     31                                   C_ghost            -
 -                     32                                   C_ghost            -
 -                     33                                   C_ghost            -
 -                     34                                   C_ghost            -
 -                     35                                   C_ghost            -
 -                     36                                   C_ghost            -
 -                     37                                   C_ghost            -
 -                     38                                   C_ghost            -
 -                     39                                   C_ghost            -
 -                     40                                   C_ghost            -
 -                     41                                   C_ghost            -
 -                     42                                   C_ghost            -
 -                     43                                   C_ghost            -
 -                     44                                   C_ghost            -
 -                     45                                   C_ghost            -
 -                     46                                   C_ghost            -
 -                     47                                   C_ghost            -
 -                     48                                   C_ghost            -
 -                     49                                   C_ghost            -
 -                     50                                   C_ghost            -
 -                     51                                   C_ghost            -
 -                     52                                   C_ghost            -
 -                     53                                   C_ghost            -
 -                     54                                   C_ghost            -
 -                     55                                   C_ghost            -
 -                     56                                   C_ghost            -
 -                     57                                   C_ghost            -
 -                     58                                   C_ghost            -
 -                     59                                   C_ghost            -
 -                     60                                   C_ghost            -
 -                     61                                   C_ghost            -
 -                     62                                   C_ghost            -
 -                     63                                   C_ghost            -
 -                     64                                   C_ghost            -
 -                     65                                   C_ghost            -
 -                     66                                   C_ghost            -
 -                     67                                   C_ghost            -
 -                     68                                   C_ghost            -
 -                     69                                   C_ghost            -
 -                     70                                   C_ghost            -
 -                     71                                   C_ghost            -
 -                     72                                   C_ghost            -
 -                     73                                   C_ghost            -
 -                     74                                   C_ghost            -
 -                     75                                   C_ghost            -
 -                     76                                   C_ghost            -
 -                     77                                   C_ghost            -
 -                     78                                   C_ghost            -
 -                     79                                   C_ghost            -
 -                     80                                   C_ghost            -
 -                     81                                   C_ghost            -
 -                     82                                   C_ghost            -
 -                     83                                   C_ghost            -
 -                     84                                   C_ghost            -
 -                     85                                   C_ghost            -
 -                     86                                   C_ghost            -
 -                     87                                   C_ghost            -
 -                     88                                   C_ghost            -
 -                     89                                   C_ghost            -
 -                     90                                   C_ghost            -
 -                     91                                   C_ghost            -
 -                     92                                   C_ghost            -
 -                     93                                   C_ghost            -
 -                     94                                   C_ghost            -
 -                     95                                   C_ghost            -
 -                     96                                   C_ghost            -
 -                     97                                   C_ghost            -
 -                     98                                   C_ghost            -
 -                     99                                   C_ghost            -
 -                    100                                   C_ghost            -
 -                    101                                   C_ghost            -
 -                    102                                   C_ghost            -
 -                    103                                   C_ghost            -
 -                    104                                   C_ghost            -
 -                    105                                   C_ghost            -
 -                    106                                   C_ghost            -
 -                    107                                   C_ghost            -
 -                    108                                   C_ghost            -
 -                    109                                   C_ghost            -
 -                    110                                   C_ghost            -
 -                    111                                   C_ghost            -
 -                    112                                   C_ghost            -
 -                    113                                   C_ghost            -
 -                    114                                   O_ghost            -
 -                    115                                   O_ghost            -
 -                    116                                   H_ghost            -
 -                    117                                   Na                 -
 -------------------------------------------------------------------------------

 *******************************************************************************
 *******************************************************************************
 **                                                                           **
 **     #####                         ##              ##                      **
 **    ##   ##            ##          ##              ##                      **
 **   ##     ##                       ##            ######                    **
 **   ##     ##  ##   ##  ##   #####  ##  ##   ####   ##    #####    #####    **
 **   ##     ##  ##   ##  ##  ##      ## ##   ##      ##   ##   ##  ##   ##   **
 **   ##  ## ##  ##   ##  ##  ##      ####     ###    ##   ######   ######    **
 **    ##  ###   ##   ##  ##  ##      ## ##      ##   ##   ##       ##        **
 **     #######   #####   ##   #####  ##  ##  ####    ##    #####   ##        **
 **           ##                                                    ##        **
 **                                                                           **
 **                                                ... make the atoms dance   **
 **                                                                           **
 **            Copyright (C) by CP2K developers group (2000-2022)             **
 **                      J. Chem. Phys. 152, 194103 (2020)                    **
 **                                                                           **
 *******************************************************************************


 TOTAL NUMBERS AND MAXIMUM NUMBERS

  Total number of            - Atomic kinds:                                   4
                             - Atoms:                                        117
                             - Shell sets:                                   117
                             - Shells:                                       583
                             - Primitive Cartesian functions:                587
                             - Cartesian basis functions:                   1624
                             - Spherical basis functions:                   1509

  Maximum angular momentum of- Orbital basis functions:                        2
                             - Local part of the GTH pseudopotential:          2
                             - Non-local part of the GTH pseudopotential:      1


 SCF PARAMETERS         Density guess:                                    ATOMIC
                        --------------------------------------------------------
                        max_scf:                                             100
                        max_scf_history:                                       0
                        max_diis:                                              4
                        --------------------------------------------------------
                        eps_scf:                                        3.00E-07
                        eps_scf_history:                                0.00E+00
                        eps_diis:                                       1.00E-01
                        eps_eigval:                                     1.00E-05
                        --------------------------------------------------------
                        level_shift [a.u.]:                             0.000000
                        added MOs                                       100    0
                        --------------------------------------------------------
                        Mixing method:                            BROYDEN_MIXING
                                                charge density mixing in g-space
                        --------------------------------------------------------
[...]
 -------------------------------------------------------------------------------

 -------------------------------------------------------------------------------
 -                                                                             -
 -                                DBCSR STATISTICS                             -
 -                                                                             -
 -------------------------------------------------------------------------------
 COUNTER                                    TOTAL       BLAS       SMM       ACC
 flops     5 x     5 x     9                16200     100.0%      0.0%      0.0%
 flops     9 x     5 x     9                29160     100.0%      0.0%      0.0%
 flops     9 x     9 x     9                96228     100.0%      0.0%      0.0%
 flops     5 x     5 x    32               172800     100.0%      0.0%      0.0%
 flops     5 x     5 x    81               287550     100.0%      0.0%      0.0%
 flops     9 x     5 x    32               311040     100.0%      0.0%      0.0%
 flops     9 x     5 x    81               517590     100.0%      0.0%      0.0%
 flops     9 x     5 x    77               526680     100.0%      0.0%      0.0%
 flops     9 x     9 x    32               559872     100.0%      0.0%      0.0%
 flops     5 x     5 x    77               569800     100.0%      0.0%      0.0%
 flops     5 x     5 x    64               700800     100.0%      0.0%      0.0%
 flops     9 x     5 x    64               846720     100.0%      0.0%      0.0%
 flops     9 x     9 x    81               931662     100.0%      0.0%      0.0%
 flops     9 x     9 x    77               948024     100.0%      0.0%      0.0%
 flops     9 x     9 x    64              1524096     100.0%      0.0%      0.0%
 flops    13 x     5 x     9              1769040     100.0%      0.0%      0.0%
 flops     5 x    13 x     9              1853280     100.0%      0.0%      0.0%
 flops     5 x     5 x    96              2102400     100.0%      0.0%      0.0%
 flops     9 x     5 x    96              2540160     100.0%      0.0%      0.0%
 flops     9 x    13 x     9              3487536     100.0%      0.0%      0.0%
 flops    13 x     9 x     9              3639168     100.0%      0.0%      0.0%
 flops     9 x     9 x    96              4572288     100.0%      0.0%      0.0%
 flops    13 x     5 x    32             18869760     100.0%      0.0%      0.0%
 flops     5 x    13 x    32             19768320     100.0%      0.0%      0.0%
 flops    13 x     5 x    81             31400460     100.0%      0.0%      0.0%
 flops     5 x    13 x    81             32895720     100.0%      0.0%      0.0%
 flops     9 x    13 x    32             37200384     100.0%      0.0%      0.0%
 flops    13 x     9 x    32             38817792     100.0%      0.0%      0.0%
 flops     9 x    13 x    81             61903764     100.0%      0.0%      0.0%
 flops    13 x     5 x    77             62222160     100.0%      0.0%      0.0%
 flops     9 x    13 x    77             62990928     100.0%      0.0%      0.0%
 flops    13 x     9 x    81             64595232     100.0%      0.0%      0.0%
 flops     5 x    13 x    77             65185120     100.0%      0.0%      0.0%
 flops    13 x     9 x    77             65729664     100.0%      0.0%      0.0%
 flops    13 x     5 x    64             76527360     100.0%      0.0%      0.0%
 flops     5 x    13 x    64             80171520     100.0%      0.0%      0.0%
 flops     9 x    13 x    64            101267712     100.0%      0.0%      0.0%
 flops    13 x     9 x    64            105670656     100.0%      0.0%      0.0%
 flops    13 x     5 x    96            229582080     100.0%      0.0%      0.0%
 flops     5 x    13 x    96            240514560     100.0%      0.0%      0.0%
 flops     9 x    13 x    96            303803136     100.0%      0.0%      0.0%
 flops    13 x     9 x    96            317011968     100.0%      0.0%      0.0%
 flops    13 x    13 x     9            644697144     100.0%      0.0%      0.0%
 flops    13 x    13 x    32           6876769536     100.0%      0.0%      0.0%
 flops    13 x    13 x    81          11443374306     100.0%      0.0%      0.0%
 flops    13 x    13 x    77          22675829176     100.0%      0.0%      0.0%
 flops    13 x    13 x    64          27889120896     100.0%      0.0%      0.0%
 flops    13 x    13 x    96          83667362688     100.0%      0.0%      0.0%
 flops inhomo. stacks                           0       0.0%      0.0%      0.0%
 flops total                       155.241284E+09     100.0%      0.0%      0.0%
 flops max/rank                     10.018839E+09     100.0%      0.0%      0.0%
 matmuls inhomo. stacks                         0       0.0%      0.0%      0.0%
 matmuls total                            6163782     100.0%      0.0%      0.0%
 number of processed stacks                 31098     100.0%      0.0%      0.0%
 average stack size                                   198.2       0.0       0.0
 marketing flops                   242.512806E+09
 -------------------------------------------------------------------------------
 # multiplications                            285
 max memory usage/rank               1.197674E+09
 # max total images/rank                        1
 # max 3D layers                                1
 # MPI messages exchanged                   27360
 MPI messages size (bytes):
  total size                         5.566364E+09
  min size                           0.000000E+00
  max size                         290.304000E+03
  average size                     203.448969E+03
 MPI breakdown and total messages size (bytes):
             size <=      128                2700                        0
       128 < size <=     8192                 180                   116640
      8192 < size <=    32768                 864                 23467968
     32768 < size <=   131072                2592                250324992
    131072 < size <=  4194304               21024               5292461520
   4194304 < size <= 16777216                   0                        0
  16777216 < size                               0                        0
 -------------------------------------------------------------------------------
 -                                                                             -
 -                      DBCSR MESSAGE PASSING PERFORMANCE                      -
 -                                                                             -
 -------------------------------------------------------------------------------
 ROUTINE             CALLS      AVE VOLUME [Bytes]
 MP_Bcast               49                     12.
 MP_Allreduce         2115                      9.
 MP_Alltoall          8040                 245220.
 MP_ISend             4560                  83400.
 MP_IRecv             4560                  73026.
 -------------------------------------------------------------------------------

 -------------------------------------------------------------------------------
 -                                                                             -
 -                                DBM STATISTICS                               -
 -                                                                             -
 -------------------------------------------------------------------------------
    M  x    N  x    K                                          COUNT     PERCENT
 -------------------------------------------------------------------------------

 -------------------------------------------------------------------------------
 -                                                                             -
 -                                GRID STATISTICS                              -
 -                                                                             -
 -------------------------------------------------------------------------------
 LP    KERNEL             BACKEND                              COUNT     PERCENT
 4     collocate general  REF                               13717417      49.24%
 4     integrate general  REF                               13505565      48.48%
 3     collocate general  REF                                 295581       1.06%
 3     integrate general  REF                                 290928       1.04%
 2     collocate general  REF                                  22316       0.08%
 2     integrate general  REF                                  21936       0.08%
 0     collocate general  REF                                   5616       0.02%
 -------------------------------------------------------------------------------

 MEMORY| Estimated peak process memory [MiB]                                1143

 -------------------------------------------------------------------------------
 -                                                                             -
 -                         MESSAGE PASSING PERFORMANCE                         -
 -                                                                             -
 -------------------------------------------------------------------------------

 ROUTINE             CALLS      AVE VOLUME [Bytes]
 MP_Group               24
 MP_Bcast              821                2230190.
 MP_Allreduce         3824                   2646.
 MP_Sync               339
 MP_Alltoall          3805               34242508.
 MP_SendRecv         12120                 390890.
 MP_ISendRecv         8550                 251100.
 MP_Wait             36840
 MP_comm_split          30
 MP_ISend            24250                1130065.
 MP_IRecv            24250                1130243.
 MP_Recv               130                 370930.
 -------------------------------------------------------------------------------


 -------------------------------------------------------------------------------
 -                                                                             -
 -                           R E F E R E N C E S                               -
 -                                                                             -
 -------------------------------------------------------------------------------
 
 CP2K version 2023.1, the CP2K developers group (2023).
 CP2K is freely available from https://www.cp2k.org/ .

 Kuehne,Thomas D.; Iannuzzi,Marcella; Del Ben,Mauro;
 Rybkin,Vladimir V.; Seewald,Patrick; Stein,Frederick; Laino,Teodoro;
 Khaliullin,Rustam Z.; Schuett,Ole; Schiffmann,Florian; Golze,Dorothea;
 Wilhelm,Jan; Chulkov,Sergey; Bani-Hashemian,Mohammad Hossein;
 Weber,Valery; Borstnik,Urban; Taillefumier,Mathieu;
 Jakobovits,Alice Shoshana; Lazzaro,Alfio; Pabst,Hans; Mueller,Tiziano;
 Schade,Robert; Guidon,Manuel; Andermatt,Samuel; Holmberg,Nico;
 Schenter,Gregory K.; Hehn,Anna; Bussy,Augustin; Belleflamme,Fabian;
 Tabacchi,Gloria; Gloess,Andreas; Lass,Michael; Bethune,Iain;
 Mundy,Christopher J.; Plessl,Christian; Watkins,Matt;
 VandeVondele,Joost; Krack,Matthias; Hutter,Juerg. 
 The Journal of Chemical Physics, 152 (19), (2020). 
 CP2K: An electronic structure and molecular dynamics software package -
 Quickstep: Efficient and accurate electronic structure calculations.
 https://doi.org/10.1063/5.0007045

 Goerigk, Lars; Hansen, Andreas; Bauer, Christoph; Ehrlich, Stephan;
 Najibi, Asim; Grimme, Stefan. , 19 (48), (2017). 
 A look at the density functional theory zoo with the advanced GMTKN55 database
 for general main group thermochemistry, kinetics and noncovalent interactions.
 https://doi.org/10.1039/C7CP04913G

 Schuett, Ole; Messmer, Peter; Hutter, Juerg; VandeVondele, Joost. 
 Electronic Structure Calculations on Graphics Processing Units, John
 Wiley & Sons, Ltd, 173-190 (2016). 
 GPU-Accelerated Sparse Matrix-Matrix Multiplication for
 Linear Scaling Density Functional Theory.
 https://doi.org/10.1002/9781118670712.ch8

 Borstnik, U; VandeVondele, J; Weber, V; Hutter, J. 
 PARALLEL COMPUTING, 40 (5-6), 47-58 (2014). 
 Sparse matrix multiplication: The distributed block-compressed sparse
 row library.
 https://doi.org/10.1016/j.parco.2014.03.012

 Hutter, J; Iannuzzi, M; Schiffmann, F; VandeVondele, J. 
 WIREs Comput Mol Sci., 4 (1), 15-25 (2014). 
 CP2K: atomistic simulations of condensed matter systems.
 https://doi.org/10.1002/wcms.1159

 Marek, A; Blum, V; Johanni, R; Havu, V; Lang, B; Auckenthaler, T;
 Heinecke, A; Bungartz, H; Lederer, H. 
 Journal of Physics: Condensed Matter, 26 (21), (2014). 
 The ELPA library: scalable parallel eigenvalue solutions for
 electronic structure
 theory and computational science.
 https://doi.org/10.1088/0953-8984/26/21/213201

 Grimme, S; Ehrlich, S; Goerigk, L. 
 JOURNAL OF COMPUTATIONAL CHEMISTRY, 32, 1456 (2011). 
 Effect of the damping function in dispersion corrected density functional theory.
 https://doi.org/10.1002/jcc.21759

 Grimme, S; Antony, J; Ehrlich, S; Krieg, H. 
 JOURNAL OF CHEMICAL PHYSICS, 132 (15), 154104 (2010). 
 A consistent and accurate ab initio parametrization of density
 functional dispersion correction (DFT-D) for the 94 elements H-Pu.
 https://doi.org/10.1063/1.3382344

 VandeVondele, J; Hutter, J. 
 JOURNAL OF CHEMICAL PHYSICS, 127 (11), 114105 (2007). 
 Gaussian basis sets for accurate calculations on molecular systems in
 gas and condensed phases.
 https://doi.org/10.1063/1.2770708

 Krack, M. 
 THEORETICAL CHEMISTRY ACCOUNTS, 114 (1-3), 145-152 (2005). 
 Pseudopotentials for H to Kr optimized for gradient-corrected
 exchange-correlation functionals.
 https://doi.org/10.1007/s00214-005-0655-y

 VandeVondele, J; Krack, M; Mohamed, F; Parrinello, M; Chassaing, T;
 Hutter, J. COMPUTER PHYSICS COMMUNICATIONS, 167 (2), 103-128 (2005). 
 QUICKSTEP: Fast and accurate density functional calculations using a
 mixed Gaussian and plane waves approach.
 https://doi.org/10.1016/j.cpc.2004.12.014

 Frigo, M; Johnson, SG. 
 PROCEEDINGS OF THE IEEE, 93 (2), 216-231 (2005). 
 The design and implementation of FFTW3.
 https://doi.org/10.1109/JPROC.2004.840301

 Hartwigsen, C; Goedecker, S; Hutter, J. 
 PHYSICAL REVIEW B, 58 (7), 3641-3662 (1998). 
 Relativistic separable dual-space Gaussian pseudopotentials from H to Rn.
 https://doi.org/10.1103/PhysRevB.58.3641

 Lippert, G; Hutter, J; Parrinello, M. 
 MOLECULAR PHYSICS, 92 (3), 477-487 (1997). 
 A hybrid Gaussian and plane wave density functional scheme.
 https://doi.org/10.1080/002689797170220

 Perdew, JP; Burke, K; Ernzerhof, M. 
 PHYSICAL REVIEW LETTERS, 77 (18), 3865-3868 (1996). 
 Generalized gradient approximation made simple.
 https://doi.org/10.1103/PhysRevLett.77.3865

 Goedecker, S; Teter, M; Hutter, J. 
 PHYSICAL REVIEW B, 54 (3), 1703-1710 (1996). 
 Separable dual-space Gaussian pseudopotentials.
 https://doi.org/10.1103/PhysRevB.54.1703


 -------------------------------------------------------------------------------
 -                                                                             -
 -                                T I M I N G                                  -
 -                                                                             -
 -------------------------------------------------------------------------------
 SUBROUTINE                       CALLS  ASD         SELF TIME        TOTAL TIME
                                MAXIMUM       AVERAGE  MAXIMUM  AVERAGE  MAXIMUM
 CP2K                                 1  1.0    0.135    0.144 1580.497 1580.517
 qs_energies                          5  2.0    0.000    0.001 1572.380 1572.515
 scf_env_do_scf                       5  3.0    0.001    0.001 1559.209 1559.301
 scf_env_do_scf_inner_loop          285  4.0    0.011    0.054 1559.208 1559.300
 qs_ks_update_qs_env                285  5.0    0.002    0.003  593.053  593.152
 rebuild_ks_matrix                  285  6.0    0.001    0.001  592.757  592.891
 qs_ks_build_kohn_sham_matrix       285  7.0    0.047    0.058  592.756  592.890
 qs_rho_update_rho_low              290  5.0    0.001    0.002  386.746  386.801
 calculate_rho_elec                 290  6.0    1.340    1.998  386.745  386.799
 qs_scf_new_mos                     285  5.0    0.004    0.005  343.131  345.189
 eigensolver                        285  6.0    0.021    0.036  334.068  334.881
 pw_transfer                       3730  8.9    0.452    0.655  319.134  333.678
 sum_up_and_integrate               285  8.0    4.772    8.731  323.397  323.463
 fft_wrap_pw1pw2                   3160  9.9    0.051    0.071  310.869  322.724
 integrate_v_rspace                 285  9.0    0.017    0.039  318.625  319.280
 fft_wrap_pw1pw2_150               1435 10.2   22.312   29.028  275.620  301.471
 density_rs2pw                      290  7.0    0.022    0.024  269.636  294.254
 gspace_mixing                      280  5.0    1.280    1.849  241.491  241.491
 fft3d_ps                          3160 11.9  109.439  138.347  227.090  239.144
 cp_fm_diag_elpa                    255  7.0    0.002    0.002  224.023  224.115
 cp_fm_diag_elpa_base               255  8.0  222.808  222.995  223.694  223.708
 grid_collocate_task_list           290  7.0  105.811  221.152  105.811  221.152
 rs_pw_transfer                    2305  9.5    0.040    0.047  178.165  202.719
 grid_integrate_task_list           285 10.0   96.457  200.955   96.457  200.955
 qs_vxc_create                      285  8.0    0.009    0.010  186.423  190.243
 xc_vxc_pw_create                   285  9.0    2.625    3.726  186.415  190.234
 broyden_mixing                     280  6.0  160.462  187.121  177.485  187.169
 mp_waitany                       24250 11.5  138.981  165.270  138.981  165.270
 rs_pw_transfer_RS2PW_150           295  9.0    5.786    9.060  126.693  151.977
 xc_rho_set_and_dset_create         285 10.0    2.299    2.794   85.781  145.129
 mp_alltoall_d11v                  4025  9.3  106.511  131.879  106.511  131.879
 rs_gather_matrices                 285 10.0    0.173    0.245  104.875  130.201
 xc_pw_derive                      1710 11.0    0.007    0.008   98.763  125.039
 pw_nn_compose_r                   1710 12.0   21.314   45.515   98.756  125.032
 potential_pw2rs                    285 10.0    0.100    0.121  117.276  117.868
 xc_functional_eval                 285 11.0    0.004    0.005   54.972  112.846
 pbe_lda_eval                       285 12.0   54.968  112.844   54.968  112.844
 cp_fm_triangular_multiply          855  7.0  109.453  110.411  109.453  110.411
 mp_sum_d                          3241  7.1   44.939  106.581   44.939  106.581
 mp_sendrecv_dm2                   3420 13.0   77.442  105.179   77.442  105.179
 xc_pw_divergence                   285 10.0    0.003    0.004   74.891   93.801
 mp_alltoall_z22v                  3160 13.9   74.052   86.255   74.052   86.255
 x_to_yz                           1710 13.2   26.877   35.914   70.413   77.120
 yz_to_x                           1450 12.6   16.590   18.916   47.106   51.513
 pw_scatter_p                      1710 12.2   30.948   50.971   30.948   50.971
 pw_gather_p                       1450 11.6   29.395   40.506   29.395   40.506
 fft_wrap_pw1pw2_50                 575 11.5    0.840    0.960   28.759   32.808
 -------------------------------------------------------------------------------

 The number of warnings for this run is : 6
 
 -------------------------------------------------------------------------------
  **** **** ******  **  PROGRAM ENDED AT                 2025-09-02 13:59:49.662
 ***** ** ***  *** **   PROGRAM RAN ON                                sebnode130
 **    ****   ******    PROGRAM RAN BY                                    luehrs
 ***** **    ** ** **   PROGRAM PROCESS ID                               1396936
  **** **  *******  **  PROGRAM STOPPED IN /home/luehrs/PhD/Sodium_batteries/Sod
                                           ium-graphene-functional_groups/Carbox
                                           yl/Carboxyl_nonhydrogenated_edges
