      91
 i =      247, E =      -563.7033812933
  C         0.4530639295       -0.9669334481        0.8208813133
  C         4.7143533162       -8.3289935869       -0.2058673168
  C         7.5578699386       -8.2815755002       -0.5298958254
  C         0.4103461255      -10.7912582971       -0.3574845725
  C         5.4125165685        0.2642994626        1.0130275014
  C         6.7788242228        0.2421289516        0.8350720300
  C         7.5253228368       -0.9435403221        0.5445442094
  C         3.2915692135       -5.8885417053        0.1686639559
  C         2.4752731798      -11.9183005368       -0.3616290462
  C         6.7437688169      -11.8468232411       -0.9533915727
  C         3.2939715688       -8.3399377790       -0.1045218150
  C         6.8430225644       -9.5133454834       -0.6331455480
  C         4.7185655300       -5.8798531864        0.0961022565
  C         2.5817230700       -4.6667226482        0.3467727292
  C         6.8471821287       -7.0697422149       -0.2657056479
  C         1.1559879264       -4.6558328489        0.3145492927
  C         5.5248166839      -11.8820018901       -0.7318743855
  C         2.5772541617       -7.1101453752        0.0364499689
  C         5.4275789103       -7.0918192285       -0.1252682373
  C         5.4277603361       -9.5436956435       -0.4290085022
  C         6.8428168832       -2.1880196228        0.4463270794
  C         5.4343129047       -2.2117515858        0.5936647738
  C         4.7625487408       -0.9806639800        0.8597467361
  C         3.3500445219       -1.0199561334        0.9276648718
  C         2.5290096851        0.0961368401        1.1079930990
  C         1.2833320446        0.1371494592        1.0542851489
  C         1.2362163910      -11.9155313853       -0.3817417319
  C         0.4423643143       -5.8714840259        0.1162718377
  C         7.5666961553      -10.7202779754       -0.9305930560
  C         1.1506560810       -7.1032217029        0.0120394429
  C         0.4331797510       -8.3286249964       -0.1498458731
  C         7.5580373980       -3.3950839714        0.2006048206
  C         1.1456621358       -9.5643951869       -0.2036441650
  C         2.5756446937       -9.5698404219       -0.1800574086
  C         3.3095556393      -10.8014430256       -0.3072748834
  C         4.7028132387      -10.7859135242       -0.4645320730
  C         0.4474670185       -3.4191410733        0.4502453524
  C         7.5576448279       -5.8413457536       -0.1496914366
  C         6.8481225634       -4.6315626422        0.0910244707
  C         5.4292257021       -4.6520234219        0.2140040735
  C         4.7217467652       -3.4360277817        0.4564773197
  C         3.3012370910       -3.4481677696        0.5238197732
  C         2.5971874527       -2.2261535267        0.7302339938
  C         1.1685886896       -2.2080169145        0.6822941384
  C         8.9276113946       -0.9314653008        0.3841176686
  C        13.2582519271       -8.2638579000       -0.5940556007
  C        16.1010009919       -8.3095517811       -0.2799786159
  C         8.9559322823      -10.6904612238       -1.1117324085
  C        14.0725878974        0.2007637172        0.5597073743
  C        15.3031762400        0.1644489335        0.7083343986
  C        16.1412176487       -0.9488281701        0.6692685159
  C        11.8335776598       -5.8144570578       -0.2857520444
  C        11.0234019918      -11.7739274073       -1.4003810680
  C        15.2862234310      -11.8593558807       -0.8262869642
  C        11.8369052519       -8.2522089255       -0.6886086476
  C        15.3866600649       -9.5227305693       -0.5135439189
  C        13.2619403262       -5.8206958365       -0.2178166584
  C        11.1194770783       -4.5930767258       -0.1279496211
  C        15.3910452282       -7.0682909311       -0.2058564540
  C         9.6937381643       -4.5991707044       -0.1045211869
  C        14.0670468872      -11.8286967658       -1.0464636111
  C        11.1204933901       -7.0307988956       -0.4917737504
  C        13.9710761876       -7.0494737274       -0.3396907682
  C        13.9716688679       -9.4936177914       -0.7139939342
  C        15.4036657094       -2.1656326698        0.4280911735
  C        13.9792782662       -2.1484043212        0.2858314978
  C        13.2509985409       -0.9096749845        0.3550387955
  C        11.8519990847       -0.9122695426        0.2756542857
  C        10.9835805886        0.1606640427        0.3775816028
  C         9.7425122889        0.2262394179        0.4498495170
  C         9.7842754969      -11.7800396229       -1.3821835269
  C         8.9832230043       -5.8251120043       -0.2485069589
  C        16.1084343609      -10.7678157036       -0.5475507092
  C         9.6940176929       -7.0358348970       -0.4747041051
  C         8.9765960781       -8.2612461489       -0.6530987974
  C        16.1134115465       -3.4010332845        0.3368266151
  C         9.6899581704       -9.4656257391       -0.9266926130
  C        11.1197116000       -9.4602164915       -0.9461584153
  C        11.8535737484      -10.6798596129       -1.1550888111
  C        13.2467685479      -10.7013772989       -1.0084051682
  C         8.9750181131       -3.3806494119        0.0906093507
  C        16.1024145013       -5.8536613980        0.0131104430
  C        15.3957473050       -4.6194686805        0.1105187613
  C        13.9732096574       -4.6045128050       -0.0043551038
  C        13.2599147726       -3.3681387690        0.0939936335
  C        11.8355195172       -3.3643503967        0.0294685903
  C        11.1080692505       -2.1406002511        0.1494880989
  C         9.6785601693       -2.1449276073        0.1916276336
  H         8.4144693858        1.3386214593        0.8212071144
  O         7.4328641665        1.4636893926        0.9724277396
 Na         5.3627955091        2.5781782498        1.5277412412
