     115
 i =      121, E =      -699.9506432508
  C         8.6585825676       15.0146736174       -0.2665634820
  C         9.8764436294       15.6313989187       -0.0192192397
  C        11.0876815176       15.0282243772        0.2923201995
  C        12.3001991740       15.6064668983        0.6594197513
  C        13.5375793519       14.9830006283        0.7436653757
  C        14.7778459263       15.5532487012        1.0367914077
  C        16.0229236686       14.9627423561        0.8272053164
  C        17.2713313670       15.5747823472        0.8544400794
  C        18.4859078622       15.0089567092        0.4706322782
  C        19.7045616551       15.6282274636        0.2340132061
  C        20.9143336342       15.0289927286       -0.0884893362
  C        22.1248050057       15.6105821981       -0.4548987312
  C        23.3612264685       14.9871302923       -0.5490330227
  C        24.6001352723       15.5612730716       -0.8393973563
  C        25.8449200291       14.9697543863       -0.6308573099
  C        27.0926771332       15.5829362749       -0.6492441284
  C        25.8342641237       13.5331978440       -0.2847165121
  C        23.3709724606       13.5383903852       -0.2616358983
  C        20.9181479748       13.5537878016       -0.0278375328
  C        18.4709384293       13.5464062782        0.2705591360
  C        16.0132439829       13.5297896961        0.4659862185
  C        14.7802777971       12.8400709851        0.3497046369
  C        13.5476655458       13.5370708995        0.4416614602
  C        12.3222963640       12.8479150768        0.2685915061
  C        11.0917056469       13.5545319621        0.2125345255
  C         9.8650022834       12.8523005337        0.0799762999
  C         8.6432292499       13.5497997767       -0.0858917548
  C         7.4098752077       12.8448564795       -0.1050326817
  C        24.6026996422       12.8402031881       -0.1805558916
  C        22.1465415351       12.8463593956       -0.0977600044
  C        19.6920792352       12.8500114450        0.0927956193
  C        17.2369007627       12.8435058391        0.2761539988
  C        24.6003889865       11.4158099880       -0.0300834320
  C        23.3711084244       10.7019167618       -0.0028556136
  C        22.1456472828       11.4148269208       -0.0205967112
  C        20.9166182448       10.7020516162        0.0008769169
  C        19.6905625745       11.4173682776        0.0383850294
  C        18.4628183804       10.7076033355        0.0345301961
  C        17.2346460444       11.4201630064        0.1136091528
  C        16.0068273950       10.7096616766        0.0798063438
  C        14.7790531003       11.4206521699        0.1625167949
  C        13.5487472585       10.7097156221        0.1065659552
  C        12.3222978089       11.4205079256        0.1523680571
  C        11.0921078542       10.7084360704        0.1030803320
  C         9.8629151652       11.4194588762        0.0936383902
  C         8.6363736915       10.7060827263        0.0715381404
  C         7.4066114308       11.4177366835        0.0177611296
  C         6.1794223112       10.7037721920        0.0266682316
  C         6.1777543874        9.2760001835        0.0751753606
  C         7.4053623475        8.5631436555        0.0871240867
  C         8.6357419012        9.2794579339        0.0807121072
  C         9.8644600888        8.5689614581        0.0504414888
  C        11.0916106482        9.2863208914        0.0500246777
  C        12.3203836580        8.5732823480       -0.0137760566
  C        13.5483936709        9.2869569969        0.0016743922
  C        14.7768322116        8.5747725038       -0.0730017855
  C        16.0065976446        9.2865585333       -0.0347529316
  C        17.2323306257        8.5723869725       -0.0883361151
  C        18.4620636121        9.2829168272       -0.0423078983
  C        19.6861594133        8.5636463627       -0.0580353868
  C        20.9160691846        9.2749461005       -0.0160329574
  C        22.1447314549        8.5587765202        0.0044209887
  C        23.3703731068        9.2743252775        0.0318848060
  C        22.1430494223        7.1291203967       -0.0007623808
  C        20.9112680731        6.4229158020       -0.0667808125
  C        19.6831400459        7.1350634898       -0.1076467408
  C        18.4547974586        6.4233112917       -0.1899343424
  C        17.2315707184        7.1480920351       -0.1817282725
  C        16.0048715769        6.4426466303       -0.2490893952
  C        14.7745652901        7.1548505718       -0.1839492964
  C        13.5406945982        6.4467223957       -0.2109830531
  C        12.3182080584        7.1527899336       -0.1066545621
  C        11.0916784088        6.4257020710       -0.0961406775
  C         9.8647003789        7.1434739676        0.0015013487
  C         8.6400359470        6.4317380029        0.0319448125
  C         7.4048201432        7.1370045084        0.0832683057
  C         6.1754397868        6.4197445209        0.0950436362
  C         4.9481846667        7.1316881595        0.0822937647
  C         4.9503340134        8.5598891232        0.0682869673
  C         3.7217740816        6.4113561767        0.0513477393
  C         3.7212264121        4.9741408422        0.0799769955
  C         4.9575444106        4.2611744077        0.1230909673
  C         6.1802189931        4.9866239686        0.0995102832
  C         7.4199742643        4.3014894905        0.0468400845
  C         8.6463657071        5.0055489199       -0.0079714590
  C         9.8693355315        4.2873590170       -0.1286097176
  C        11.0944279592        5.0048531007       -0.1885195689
  C        12.3213498133        4.2861974848       -0.3412184439
  C        13.5376076898        5.0284705267       -0.3511750640
  C        14.7624818317        4.3395065803       -0.4840194911
  C        16.0003888696        5.0203573112       -0.3901622462
  C        17.2165675980        4.2911320221       -0.4257155063
  C        18.4512482687        4.9885861568       -0.2710503408
  C        19.6796559586        4.2911424232       -0.1768951990
  C        20.9071967732        4.9934125067       -0.0657804177
  C        19.6791514369        2.8166058123       -0.1734131517
  C        18.4482669889        2.2548447007       -0.4413449466
  C        17.2109714573        2.8081722129       -0.5994527308
  C        15.9413077747        2.2417183091       -0.8286021415
  C        14.7446270882        2.9225351951       -0.7162469525
  C        13.5440075307        2.1526475768       -0.7468912840
  C        12.3611206447        2.8567882750       -0.4819489382
  C        11.1089962527        2.0830877049       -0.3718438945
  C         9.8535869726        2.8544929957       -0.1936025725
  C         8.6563929133        2.1717447067       -0.1076454820
  C         6.2309488717        2.1730451380        0.1140599740
  C         7.4216617492        2.8637098505        0.0180384393
  C         4.9689722858        2.7672876409        0.1801790518
  C         3.7055377928        2.2415575718        0.2808502001
  C         2.4639735825        2.8202798854        0.1736484734
  C         2.4824754293        4.2879697597        0.0556552183
  C         1.2307864405        2.1591844098        0.1025089663
  O        11.0742328280        0.8334501575       -0.4252469262
  H         8.6574930815        1.0837096537       -0.1453727897
 Na        13.2281618473       -0.1895857377       -0.9721046844
