 DBCSR| CPU Multiplication driver                                           BLAS (U)
 DBCSR| Multrec recursion limit                                              512 (U)
 DBCSR| Multiplication stack size                                           1000 (D)
 DBCSR| Maximum elements for images                                    UNLIMITED (U)
 DBCSR| Multiplicative factor virtual images                                   1 (U)
 DBCSR| Use multiplication densification                                       T (D)
 DBCSR| Multiplication size stacks                                             3 (U)
 DBCSR| Use memory pool for CPU allocation                                     F (U)
 DBCSR| Number of 3D layers                                               SINGLE (U)
 DBCSR| Use MPI memory allocation                                              F (U)
 DBCSR| Use RMA algorithm                                                      F (U)
 DBCSR| Use Communication thread                                               T (U)
 DBCSR| Communication thread load                                             87 (D)
 DBCSR| MPI: My process id                                                     0
 DBCSR| MPI: Number of processes                                              16
 DBCSR| OMP: Current number of threads                                         1
 DBCSR| OMP: Max number of threads                                             1
 DBCSR| Split modifier for TAS multiplication algorithm                  1.0E+00 (U)


  **** **** ******  **  PROGRAM STARTED AT               2025-10-02 11:19:38.483
 ***** ** ***  *** **   PROGRAM STARTED ON                            sebnode120
 **    ****   ******    PROGRAM STARTED BY                                luehrs
 ***** **    ** ** **   PROGRAM PROCESS ID                                977648
  **** **  *******  **  PROGRAM STARTED IN /home/luehrs/PhD/Sodium_batteries/Sod
                                           ium-graphene-functional_groups/XPS_Fu
                                           nctional_groups/Alcohol_zig-zag_non-h
                                           ydrogenated

 CP2K| version string:                                       CP2K version 2023.1
 CP2K| source code revision number:                                  git:b888bd8
 CP2K| cp2kflags: omp libint fftw3 libxc elpa parallel scalapack spglib         
 CP2K| is freely available from                            https://www.cp2k.org/
 CP2K| Program compiled at                          Tue Jan 10 19:52:03 UTC 2023
 CP2K| Program compiled on                                            x86-ubc-01
 CP2K| Program compiled for                                Linux-x86_64-gfortran
 CP2K| Data directory path                                       /usr/share/cp2k
 CP2K| Input file name                                                 input.inp

 GLOBAL| Force Environment number                                              1
 GLOBAL| Basis set file name                                          BASIS_GW2X
 GLOBAL| Potential file name                                           POTENTIAL
 GLOBAL| MM Potential file name                                     MM_POTENTIAL
 GLOBAL| Coordinate file name                                         coords.xyz
 GLOBAL| Method name                                                        CP2K
 GLOBAL| Project name                                                         HC
 GLOBAL| Run type                                                         ENERGY
 GLOBAL| FFT library                                                       FFTW3
 GLOBAL| Diagonalization library                                            ELPA
 GLOBAL| DGEMM library                                                      BLAS
 GLOBAL| Minimum number of eigenvectors for ELPA usage                        16
 GLOBAL| Orthonormality check for eigenvectors                          DISABLED
 GLOBAL| Matrix multiplication library                                 ScaLAPACK
 GLOBAL| All-to-all communication in single precision                          F
 GLOBAL| FFTs using library dependent lengths                                  F
 GLOBAL| Grid backend                                                       AUTO
 GLOBAL| Global print level                                                 HIGH
 GLOBAL| MPI I/O enabled                                                       T
 GLOBAL| Total number of message passing processes                            16
 GLOBAL| Number of threads for this process                                    1
 GLOBAL| This output is from process                                           0
 GLOBAL| Stack size for threads created by OpenMP (OMP_STACKSIZE)        default
 GLOBAL| CPU model name                 Intel(R) Xeon(R) Gold 6144 CPU @ 3.50GHz

 MEMORY| system memory details [Kb]
 MEMORY|                        rank 0           min           max       average
 MEMORY| MemTotal             65585096      65585096      65585096      65585096
 MEMORY| MemFree              62306520      62306520      62306520      62306520
 MEMORY| Buffers                162780        162780        162780        162780
 MEMORY| Cached                1168572       1168572       1168572       1168572
 MEMORY| Slab                   236696        236696        236696        236696
 MEMORY| SReclaimable            97764         97764         97764         97764
 MEMORY| MemLikelyFree        63735636      63735636      63735636      63735636


 *** Fundamental physical constants (SI units) ***

 *** Literature: B. J. Mohr and B. N. Taylor,
 ***             CODATA recommended values of the fundamental physical
 ***             constants: 2006, Web Version 5.1
 ***             http://physics.nist.gov/constants

 Speed of light in vacuum [m/s]                             2.99792458000000E+08
 Magnetic constant or permeability of vacuum [N/A**2]       1.25663706143592E-06
 Electric constant or permittivity of vacuum [F/m]          8.85418781762039E-12
 Planck constant (h) [J*s]                                  6.62606896000000E-34
 Planck constant (h-bar) [J*s]                              1.05457162825177E-34
 Elementary charge [C]                                      1.60217648700000E-19
 Electron mass [kg]                                         9.10938215000000E-31
 Electron g factor [ ]                                     -2.00231930436220E+00
 Proton mass [kg]                                           1.67262163700000E-27
 Fine-structure constant                                    7.29735253760000E-03
 Rydberg constant [1/m]                                     1.09737315685270E+07
 Avogadro constant [1/mol]                                  6.02214179000000E+23
 Boltzmann constant [J/K]                                   1.38065040000000E-23
 Atomic mass unit [kg]                                      1.66053878200000E-27
 Bohr radius [m]                                            5.29177208590000E-11

 *** Conversion factors ***

 [u] -> [a.u.]                                              1.82288848426455E+03
 [Angstrom] -> [Bohr] = [a.u.]                              1.88972613288564E+00
 [a.u.] = [Bohr] -> [Angstrom]                              5.29177208590000E-01
 [a.u.] -> [s]                                              2.41888432650478E-17
 [a.u.] -> [fs]                                             2.41888432650478E-02
 [a.u.] -> [J]                                              4.35974393937059E-18
 [a.u.] -> [N]                                              8.23872205491840E-08
 [a.u.] -> [K]                                              3.15774647902944E+05
 [a.u.] -> [kJ/mol]                                         2.62549961709828E+03
 [a.u.] -> [kcal/mol]                                       6.27509468713739E+02
 [a.u.] -> [Pa]                                             2.94210107994716E+13
 [a.u.] -> [bar]                                            2.94210107994716E+08
 [a.u.] -> [atm]                                            2.90362800883016E+08
 [a.u.] -> [eV]                                             2.72113838565563E+01
 [a.u.] -> [Hz]                                             6.57968392072181E+15
 [a.u.] -> [1/cm] (wave numbers)                            2.19474631370540E+05
 [a.u./Bohr**2] -> [1/cm]                                   5.14048714338585E+03
 

 CELL_TOP| Volume [angstrom^3]:                                     13612.533707
 CELL_TOP| Vector a [angstrom    19.648     0.000     0.000   |a| =    19.648000
 CELL_TOP| Vector b [angstrom    20.000    34.641     0.000   |b| =    40.000000
 CELL_TOP| Vector c [angstrom     0.000     0.000    20.000   |c| =    20.000000
 CELL_TOP| Angle (b,c), alpha [degree]:                                90.000000
 CELL_TOP| Angle (a,c), beta  [degree]:                                90.000000
 CELL_TOP| Angle (a,b), gamma [degree]:                                60.000000
 CELL_TOP| Numerically orthorhombic:                                          NO
 CELL_TOP| Periodicity                                                       XYZ


 SUBCELL GRID  INFO FOR THE NONBONDED NEIGHBOR LISTS

    NUMBER OF SUBCELLS             ::                   6        12         7
    NUMBER OF PERIODIC      IMAGES ::                   1         1         1
    NUMBER OF INTERACTING SUBCELLS ::                   2         2         2

 GENERATE|  Preliminary Number of Bonds generated:                             0
 GENERATE|  Achieved consistency in connectivity generation.

 CELL| Volume [angstrom^3]:                                         13612.533707
 CELL| Vector a [angstrom]:      19.648     0.000     0.000   |a| =    19.648000
 CELL| Vector b [angstrom]:      20.000    34.641     0.000   |b| =    40.000000
 CELL| Vector c [angstrom]:       0.000     0.000    20.000   |c| =    20.000000
 CELL| Angle (b,c), alpha [degree]:                                    90.000000
 CELL| Angle (a,c), beta  [degree]:                                    90.000000
 CELL| Angle (a,b), gamma [degree]:                                    60.000000
 CELL| Numerically orthorhombic:                                              NO
 CELL| Periodicity                                                           XYZ

 CELL_REF| Volume [angstrom^3]:                                     13612.533707
 CELL_REF| Vector a [angstrom    19.648     0.000     0.000   |a| =    19.648000
 CELL_REF| Vector b [angstrom    20.000    34.641     0.000   |b| =    40.000000
 CELL_REF| Vector c [angstrom     0.000     0.000    20.000   |c| =    20.000000
 CELL_REF| Angle (b,c), alpha [degree]:                                90.000000
 CELL_REF| Angle (a,c), beta  [degree]:                                90.000000
 CELL_REF| Angle (a,b), gamma [degree]:                                60.000000
 CELL_REF| Numerically orthorhombic:                                          NO
 CELL_REF| Periodicity                                                       XYZ

 *******************************************************************************
 *******************************************************************************
 **                                                                           **
 **     #####                         ##              ##                      **
 **    ##   ##            ##          ##              ##                      **
 **   ##     ##                       ##            ######                    **
 **   ##     ##  ##   ##  ##   #####  ##  ##   ####   ##    #####    #####    **
 **   ##     ##  ##   ##  ##  ##      ## ##   ##      ##   ##   ##  ##   ##   **
 **   ##  ## ##  ##   ##  ##  ##      ####     ###    ##   ######   ######    **
 **    ##  ###   ##   ##  ##  ##      ## ##      ##   ##   ##       ##        **
 **     #######   #####   ##   #####  ##  ##  ####    ##    #####   ##        **
 **           ##                                                    ##        **
 **                                                                           **
 **                                                ... make the atoms dance   **
 **                                                                           **
 **            Copyright (C) by CP2K developers group (2000-2022)             **
 **                      J. Chem. Phys. 152, 194103 (2020)                    **
 **                                                                           **
 *******************************************************************************

 RADII: ORBITAL BASIS in angstrom            Kind   Label     Radius  OCE Radius
                                                1   C       5.464310    5.464310
                                                2   Cx     10.586320   10.586320
                                                3   O       4.507742    4.507742
                                                4   H       6.136928    6.136928

 RADII: SHELL SETS OF ORBITAL BASIS in angstrom   Kind  Label   Set       Radius
                                                     1  C         1     5.464310
                                                     2  Cx        1     1.029760
                                                                  2     2.248558
                                                                  3     3.510222
                                                                  4     5.301536
                                                                  5     8.278841
                                                                  6     2.111957
                                                                  7     3.589446
                                                                  8     6.086067
                                                                  9    10.586320
                                                                 10     1.764030
                                                                 11     3.018919
                                                                 12     6.928919
                                                                 13     2.271820
                                                                 14     6.534266
                                                     3  O         1     4.507742
                                                     4  H         1     6.136928

 RADII: PRIMITIVE GAUSSIANS OF ORBITAL BASIS in anKindomLabel   Set       Radius
                                                     1  C         1     0.802859
                                                                        1.314668
                                                                        2.308781
                                                                        3.176889
                                                                        5.464310
                                                     2  Cx        1     0.020115
                                                                        0.053438
                                                                        0.114577
                                                                        0.218970
                                                                        0.387975
                                                                        0.647712
                                                                        1.029760
                                                     2  Cx        2     0.735149
                                                                        2.248558
                                                     2  Cx        3     3.510222
                                                     2  Cx        4     5.301536
                                                     2  Cx        5     8.278841
                                                     2  Cx        6     0.299696
                                                                        0.653823
                                                                        1.233581
                                                                        2.111957
                                                     2  Cx        7     3.589446
                                                     2  Cx        8     6.086067
                                                     2  Cx        9    10.586320
                                                     2  Cx       10     1.764030
                                                     2  Cx       11     3.018919
                                                     2  Cx       12     6.928919
                                                     2  Cx       13     2.271820
                                                     2  Cx       14     6.534266
                                                     3  O         1     0.600974
                                                                        0.986050
                                                                        1.751928
                                                                        2.868746
                                                                        4.507742
                                                     4  H         1     0.531136
                                                                        1.107669
                                                                        2.077823
                                                                        3.655422
                                                                        6.136928

 RADII: AUXILLIARY BASIS in angstrom         Kind   Label     Radius  OCE Radius
                                                          1   C         no basis
                                                          2   Cx        no basis
                                                          3   O         no basis
                                                          4   H         no basis

 RADII: SHELL SETS OF AUXILLIARY BASIS in angstromKind  Label   Set       Radius
                                                     1   C              no basis
                                                     2   Cx             no basis
                                                     3   O              no basis
                                                     4   H              no basis

 RADII: PRIMITIVE GAUSSIANS OF AUXILLIARY BASIS inKindstLabel   Set       Radius
                                                     1   C              no basis
                                                     2   Cx             no basis
                                                     3   O              no basis
                                                     4   H              no basis

 RADII: LOCAL RI BASIS in angstrom           Kind   Label     Radius  OCE Radius
                                                          1   C         no basis
                                                          2   Cx        no basis
                                                          3   O         no basis
                                                          4   H         no basis

 RADII: SHELL SETS OF LOCAL RI BASIS in angstrom  Kind  Label   Set       Radius
                                                     1   C              no basis
                                                     2   Cx             no basis
                                                     3   O              no basis
                                                     4   H              no basis

 RADII: PRIMITIVE GAUSSIANS OF LOCAL RI BASIS in aKindroLabel   Set       Radius
                                                     1   C              no basis
                                                     2   Cx             no basis
                                                     3   O              no basis
                                                     4   H              no basis

 RADII: CORE CHARGE DISTRIBUTIONS in angstrom          Kind   Label       Radius
                                                          1   C         1.376023
                                                          2   Cx        1.425687
                                                          3   O         1.017201
                                                          4   H         0.815723

 RADII: LOCAL PART OF GTH/ELP PP in angstrom           Kind   Label       Radius
                                                          1   C         0.699284
                                                          3   O         0.528197
                                                          4   H         0.393411

 RADII: NON-LOCAL PART OF GTH PP in angstrom           Kind   Label       Radius
                                                          1   C         0.838527
                                                          3   O         0.622773
                                                          4   H         0.000000

 RADII: ONE CENTER PROJECTORS in angstrom              Kind   Label       Radius
                                                          1   C         0.895066
                                                          2   Cx        0.895384
                                                          3   O         0.895066
                                                          4   H         0.712046

 DISTRIBUTION OF THE MOLECULES                    Process    Number of molecules
                                                        0                      7
                                                        1                      7
                                                        2                      7
                                                        3                      7
                                                        4                      7
                                                        5                      7
                                                        6                      7
                                                        7                      7
                                                        8                      8
                                                        9                      7
                                                       10                      7
                                                       11                      7
                                                       12                      7
                                                       13                      8
                                                       14                      7
                                                       15                      7
                                                      Sum                    114

  Process   Kind   Local molecules (global indices)
        0      1         1
               2
               3
               4
               5
               6
               7
               8
               9
              10
              11
              12
              13
              14
              15
              16
              17
              18
              19
              20
              21        21
              22
              23
              24
              25
              26
              27
              28
              29
              30
              31
              32
              33
              34
              35
              36
              37
              38
              39
              40        40
              41
              42
              43
              44
              45
              46
              47
              48
              49
              50        50
              51
              52
              53
              54
              55
              56
              57
              58
              59
              60
              61
              62
              63
              64
              65
              66
              67
              68        68
              69
              70
              71
              72
              73
              74
              75
              76
              77
              78
              79
              80
              81
              82
              83        83
              84
              85
              86
              87
              88
              89
              90
              91
              92
              93
              94
              95
              96
              97
              98
              99
             100
             101
             102       102
             103
             104
             105
             106
             107
             108
             109
             110
             111
             112
             113
             114

 DISTRIBUTION OF THE PARTICLES                    Process    Number of particles
                                                        0                      7
                                                        1                      7
                                                        2                      7
                                                        3                      7
                                                        4                      7
                                                        5                      7
                                                        6                      7
                                                        7                      7
                                                        8                      8
                                                        9                      7
                                                       10                      7
                                                       11                      7
                                                       12                      7
                                                       13                      8
                                                       14                      7
                                                       15                      7
                                                      Sum                    114

  Process   Kind   Local particles (global indices)
        0      1        1    21    40    50    68    83   102
               2
               3
               4

 DFT| Spin unrestricted (spin-polarized) Kohn-Sham calculation               UKS
 DFT| Multiplicity                                                             2
 DFT| Number of spin states                                                    2
 DFT| Charge                                                                   0
 DFT| Self-interaction correction (SIC)                                       NO
 DFT| Cutoffs: density                                              1.000000E-10
 DFT|          gradient                                             1.000000E-10
 DFT|          tau                                                  1.000000E-10
 DFT|          cutoff_smoothing_range                               0.000000E+00
 DFT| XC density smoothing                                                  NONE
 DFT| XC derivatives                                                          PW

 FUNCTIONAL| GGA_X_PBE:
 FUNCTIONAL| [1] J. P. Perdew, K. Burke, and M. Ernzerhof, Phys. Rev. Lett. 77, 
 FUNCTIONAL| 3865 (1996), doi: 10.1103/PhysRevLett.77.3865                      
 FUNCTIONAL| Optional external parameters:                                      
 FUNCTIONAL|  * Asymptotic value of the enhancement function                    
 FUNCTIONAL|  * Coefficient of the 2nd order expansion                          
 FUNCTIONAL| {scale=0.550, spin-polarized}                                      
 FUNCTIONAL| GGA_C_PBE:
 FUNCTIONAL| [1] J. P. Perdew, K. Burke, and M. Ernzerhof, Phys. Rev. Lett. 77, 
 FUNCTIONAL| 3865 (1996), doi: 10.1103/PhysRevLett.77.3865                      
 FUNCTIONAL| Optional external parameters:                                      
 FUNCTIONAL|  * beta constant                                                   
 FUNCTIONAL|  * (1 - ln(2))/Pi^2 in the PBE                                     
 FUNCTIONAL|  * Multiplies the A t^2 term. Used in the SPBE functional          
 FUNCTIONAL| {scale=1.000, spin-polarized}                                      


 QS| Method:                                                                GAPW
 QS| Density plane wave grid type                        NON-SPHERICAL FULLSPACE
 QS| Number of grid levels:                                                    5
 QS| Density cutoff [a.u.]:                                                300.0
 QS| Multi grid cutoff [a.u.]: 1) grid level                               300.0
 QS|                           2) grid level                               100.0
 QS|                           3) grid level                                33.3
 QS|                           4) grid level                                11.1
 QS|                           5) grid level                                 3.7
 QS| Grid level progression factor:                                          3.0
 QS| Relative density cutoff [a.u.]:                                        25.0
 QS| Interaction thresholds: eps_pgf_orb:                                1.0E-05
 QS|                         eps_filter_matrix:                          0.0E+00
 QS|                         eps_core_charge:                            1.0E-12
 QS|                         eps_rho_gspace:                             1.0E-10
 QS|                         eps_rho_rspace:                             1.0E-10
 QS|                         eps_gvg_rspace:                             1.0E-05
 QS|                         eps_ppl:                                    1.0E-02
 QS|                         eps_ppnl:                                   1.0E-07
 QS| GAPW|                   eps_fit:                                    1.0E-04
 QS| GAPW|                   eps_iso:                                    1.0E-12
 QS| GAPW|                   eps_svd:                                    1.0E-08
 QS| GAPW|                   eps_cpc:                                    1.0E-10
 QS| GAPW|   atom-r-grid: quadrature:                                     GC_LOG
 QS| GAPW|      atom-s-grid:  max l :                                          6
 QS| GAPW|      max_l_rho0 :                                                   2


 ATOMIC KIND INFORMATION

  1. Atomic kind: C                                     Number of atoms:     111

     Orbital Basis Set                                        DZVP-MOLOPT-SR-GTH

       Number of orbital shell sets:                                           1
       Number of orbital shells:                                               5
       Number of primitive Cartesian functions:                                5
       Number of Cartesian basis functions:                                   14
       Number of spherical basis functions:                                   13
       Norm type:                                                              2

       Normalised Cartesian orbitals:

                        Set   Shell   Orbital            Exponent    Coefficient

                          1       1    2s                5.605331       0.322515
                                                         2.113016       0.213043
                                                         0.769911      -0.209686
                                                         0.348157      -0.219794
                                                         0.128212      -0.022789

                          1       2    3s                5.605331       0.552234
                                                         2.113016       0.082072
                                                         0.769911       0.007843
                                                         0.348157       0.136893
                                                         0.128212       0.074283

                          1       3    3px               5.605331      -0.703879
                                                         2.113016      -0.642521
                                                         0.769911      -0.374851
                                                         0.348157      -0.139743
                                                         0.128212      -0.027849
                          1       3    3py               5.605331      -0.703879
                                                         2.113016      -0.642521
                                                         0.769911      -0.374851
                                                         0.348157      -0.139743
                                                         0.128212      -0.027849
                          1       3    3pz               5.605331      -0.703879
                                                         2.113016      -0.642521
                                                         0.769911      -0.374851
                                                         0.348157      -0.139743
                                                         0.128212      -0.027849

                          1       4    4px               5.605331      -0.480376
                                                         2.113016      -0.552894
                                                         0.769911      -0.316145
                                                         0.348157       0.210505
                                                         0.128212       0.076095
                          1       4    4py               5.605331      -0.480376
                                                         2.113016      -0.552894
                                                         0.769911      -0.316145
                                                         0.348157       0.210505
                                                         0.128212       0.076095
                          1       4    4pz               5.605331      -0.480376
                                                         2.113016      -0.552894
                                                         0.769911      -0.316145
                                                         0.348157       0.210505
                                                         0.128212       0.076095

                          1       5    4dx2              5.605331       0.640026
                                                         2.113016       0.274300
                                                         0.769911       0.446711
                                                         0.348157       0.028674
                                                         0.128212       0.029790
                          1       5    4dxy              5.605331       1.108557
                                                         2.113016       0.475102
                                                         0.769911       0.773726
                                                         0.348157       0.049666
                                                         0.128212       0.051599
                          1       5    4dxz              5.605331       1.108557
                                                         2.113016       0.475102
                                                         0.769911       0.773726
                                                         0.348157       0.049666
                                                         0.128212       0.051599
                          1       5    4dy2              5.605331       0.640026
                                                         2.113016       0.274300
                                                         0.769911       0.446711
                                                         0.348157       0.028674
                                                         0.128212       0.029790
                          1       5    4dyz              5.605331       1.108557
                                                         2.113016       0.475102
                                                         0.769911       0.773726
                                                         0.348157       0.049666
                                                         0.128212       0.051599
                          1       5    4dz2              5.605331       0.640026
                                                         2.113016       0.274300
                                                         0.769911       0.446711
                                                         0.348157       0.028674
                                                         0.128212       0.029790

     Auxiliary Fit Basis Set                                                FIT3

       Number of orbital shell sets:                                           6
       Number of orbital shells:                                               6
       Number of primitive Cartesian functions:                                6
       Number of Cartesian basis functions:                                   12
       Number of spherical basis functions:                                   12
       Norm type:                                                              2

       Normalised Cartesian orbitals:

                        Set   Shell   Orbital            Exponent    Coefficient

                          1       1    1s                0.143490       0.166160

                          2       1    1s                0.450840       0.392127

                          3       1    1s                4.420950       2.172935

                          4       1    1px               0.152150       0.135450
                          4       1    1py               0.152150       0.135450
                          4       1    1pz               0.152150       0.135450

                          5       1    1px               0.670820       0.865362
                          5       1    1py               0.670820       0.865362
                          5       1    1pz               0.670820       0.865362

                          6       1    1px               3.053900       5.754513
                          6       1    1py               3.053900       5.754513
                          6       1    1pz               3.053900       5.754513

       Atomic covalent radius [Angstrom]:                                  0.770

       Atomic van der Waals radius [Angstrom]:                             1.700

     The atoms of this atomic kind are PAW atoms (GAPW):
       Hard Gaussian function radius:                                      1.512
       Rho0 radius:                                                        1.512
       Maximum GTO radius used for PAW projector construction:            24.566

     GAPW Soft Basis Set                                 DZVP-MOLOPT-SR-GTH_soft

       Number of orbital shell sets:                                           1
       Number of orbital shells:                                               5
       Number of primitive Cartesian functions:                                4
       Number of Cartesian basis functions:                                   14
       Number of spherical basis functions:                                   13
       Norm type:                                                              2

       Normalised Cartesian orbitals:

                        Set   Shell   Orbital            Exponent    Coefficient

                          1       1    2s                2.113016       0.213043
                                                         0.769911      -0.209686
                                                         0.348157      -0.219794
                                                         0.128212      -0.022789

                          1       2    3s                2.113016       0.082072
                                                         0.769911       0.007843
                                                         0.348157       0.136893
                                                         0.128212       0.074283

                          1       3    3px               2.113016      -0.642521
                                                         0.769911      -0.374851
                                                         0.348157      -0.139743
                                                         0.128212      -0.027849
                          1       3    3py               2.113016      -0.642521
                                                         0.769911      -0.374851
                                                         0.348157      -0.139743
                                                         0.128212      -0.027849
                          1       3    3pz               2.113016      -0.642521
                                                         0.769911      -0.374851
                                                         0.348157      -0.139743
                                                         0.128212      -0.027849

                          1       4    4px               2.113016      -0.552894
                                                         0.769911      -0.316145
                                                         0.348157       0.210505
                                                         0.128212       0.076095
                          1       4    4py               2.113016      -0.552894
                                                         0.769911      -0.316145
                                                         0.348157       0.210505
                                                         0.128212       0.076095
                          1       4    4pz               2.113016      -0.552894
                                                         0.769911      -0.316145
                                                         0.348157       0.210505
                                                         0.128212       0.076095

                          1       5    4dx2              2.113016       0.274300
                                                         0.769911       0.446711
                                                         0.348157       0.028674
                                                         0.128212       0.029790
                          1       5    4dxy              2.113016       0.475102
                                                         0.769911       0.773726
                                                         0.348157       0.049666
                                                         0.128212       0.051599
                          1       5    4dxz              2.113016       0.475102
                                                         0.769911       0.773726
                                                         0.348157       0.049666
                                                         0.128212       0.051599
                          1       5    4dy2              2.113016       0.274300
                                                         0.769911       0.446711
                                                         0.348157       0.028674
                                                         0.128212       0.029790
                          1       5    4dyz              2.113016       0.475102
                                                         0.769911       0.773726
                                                         0.348157       0.049666
                                                         0.128212       0.051599
                          1       5    4dz2              2.113016       0.274300
                                                         0.769911       0.446711
                                                         0.348157       0.028674
                                                         0.128212       0.029790

     GTH Potential information for                                       GTH-PBE

       Description:                       Goedecker-Teter-Hutter pseudopotential
                                           Goedecker et al., PRB 54, 1703 (1996)
                                          Hartwigsen et al., PRB 58, 3641 (1998)
                                                      Krack, TCA 114, 145 (2005)

       Gaussian exponent of the core charge distribution:               4.364419
       Electronic configuration (s p d ...):                               2   2

       Parameters of the local part of the GTH pseudopotential:

                          rloc        C1          C2          C3          C4
                        0.338471   -8.803674    1.339211

       Parameters of the non-local part of the GTH pseudopotential:

                   l      r(l)      h(i,j,l)

                   0    0.302576    9.622487
                   1    0.291507

  2. Atomic kind: Cx                                    Number of atoms:       1

     Orbital Basis Set                                               aug-pcseg-2

       Number of orbital shell sets:                                          14
       Number of orbital shells:                                              14
       Number of primitive Cartesian functions:                               24
       Number of Cartesian basis functions:                                   55
       Number of spherical basis functions:                                   46
       Norm type:                                                              2

       Normalised Cartesian orbitals:

                        Set   Shell   Orbital            Exponent    Coefficient

                          1       1    1s             7319.990000       0.349375
                                                      1098.180000       0.650557
                                                       250.014000       1.096680
                                                        70.758600       1.627573
                                                        22.859500       1.933206
                                                         8.039360       1.515585
                                                         2.893090       0.510144

                          2       1    1s                5.216400      -0.507287
                                                         0.556124       0.494060

                          3       1    1s                0.228813       0.235787

                          4       1    1s                0.093634       0.120638

                          5       1    1s                0.035418       0.058187

                          6       1    1px              33.985500       1.362795
                                                         7.729570       1.535057
                                                         2.249540       1.244013
                                                         0.767681       0.729116
                          6       1    1py              33.985500       1.362795
                                                         7.729570       1.535057
                                                         2.249540       1.244013
                                                         0.767681       0.729116
                          6       1    1pz              33.985500       1.362795
                                                         7.729570       1.535057
                                                         2.249540       1.244013
                                                         0.767681       0.729116

                          7       1    1px               0.263283       0.268824
                          7       1    1py               0.263283       0.268824
                          7       1    1pz               0.263283       0.268824

                          8       1    1px               0.084874       0.065300
                          8       1    1py               0.084874       0.065300
                          8       1    1pz               0.084874       0.065300

                          9       1    1px               0.025704       0.014670
                          9       1    1py               0.025704       0.014670
                          9       1    1pz               0.025704       0.014670

                         10       1    1dx2              1.400000       2.965743
                         10       1    1dxy              1.400000       5.136818
                         10       1    1dxz              1.400000       5.136818
                         10       1    1dy2              1.400000       2.965743
                         10       1    1dyz              1.400000       5.136818
                         10       1    1dz2              1.400000       2.965743

                         11       1    1dx2              0.450000       0.406941
                         11       1    1dxy              0.450000       0.704842
                         11       1    1dxz              0.450000       0.704842
                         11       1    1dy2              0.450000       0.406941
                         11       1    1dyz              0.450000       0.704842
                         11       1    1dz2              0.450000       0.406941

                         12       1    1dx2              0.077111       0.018572
                         12       1    1dxy              0.077111       0.032168
                         12       1    1dxz              0.077111       0.032168
                         12       1    1dy2              0.077111       0.018572
                         12       1    1dyz              0.077111       0.032168
                         12       1    1dz2              0.077111       0.018572

                         13       1    1fx3              0.950000       1.311694
                         13       1    1fx2y             0.950000       2.933037
                         13       1    1fx2z             0.950000       2.933037
                         13       1    1fxy2             0.950000       2.933037
                         13       1    1fxyz             0.950000       5.080169
                         13       1    1fxz2             0.950000       2.933037
                         13       1    1fy3              0.950000       1.311694
                         13       1    1fy2z             0.950000       2.933037
                         13       1    1fyz2             0.950000       2.933037
                         13       1    1fz3              0.950000       1.311694

                         14       1    1fx3              0.102810       0.008811
                         14       1    1fx2y             0.102810       0.019702
                         14       1    1fx2z             0.102810       0.019702
                         14       1    1fxy2             0.102810       0.019702
                         14       1    1fxyz             0.102810       0.034126
                         14       1    1fxz2             0.102810       0.019702
                         14       1    1fy3              0.102810       0.008811
                         14       1    1fy2z             0.102810       0.019702
                         14       1    1fyz2             0.102810       0.019702
                         14       1    1fz3              0.102810       0.008811

     Auxiliary Fit Basis Set                                          aug-admm-2

       Number of orbital shell sets:                                           3
       Number of orbital shells:                                              10
       Number of primitive Cartesian functions:                               12
       Number of Cartesian basis functions:                                   26
       Number of spherical basis functions:                                   24
       Norm type:                                                              2

       Normalised Cartesian orbitals:

                        Set   Shell   Orbital            Exponent    Coefficient

                          1       1    1s              109.016000       4.923462
                                                        18.264600       5.452682
                                                         4.347920       0.000000
                                                         0.481253       0.000000
                                                         0.143588       0.000000
                                                         0.040429       0.000000

                          1       2    2s              109.016000       0.000000
                                                        18.264600       0.000000
                                                         4.347920       2.145958
                                                         0.481253       0.000000
                                                         0.143588       0.000000
                                                         0.040429       0.000000

                          1       3    3s              109.016000       0.000000
                                                        18.264600       0.000000
                                                         4.347920       0.000000
                                                         0.481253       0.411804
                                                         0.143588       0.000000
                                                         0.040429       0.000000

                          1       4    4s              109.016000       0.000000
                                                        18.264600       0.000000
                                                         4.347920       0.000000
                                                         0.481253       0.000000
                                                         0.143588       0.166245
                                                         0.040429       0.000000

                          1       5    5s              109.016000       0.000000
                                                        18.264600       0.000000
                                                         4.347920       0.000000
                                                         0.481253       0.000000
                                                         0.143588       0.000000
                                                         0.040429       0.064258

                          2       1    1px               2.823390       1.538017
                                                         0.590232       0.604745
                                                         0.152426       0.000000
                                                         0.038107       0.000000
                          2       1    1py               2.823390       1.538017
                                                         0.590232       0.604745
                                                         0.152426       0.000000
                                                         0.038107       0.000000
                          2       1    1pz               2.823390       1.538017
                                                         0.590232       0.604745
                                                         0.152426       0.000000
                                                         0.038107       0.000000

                          2       2    2px               2.823390       0.000000
                                                         0.590232       0.000000
                                                         0.152426       0.135758
                                                         0.038107       0.000000
                          2       2    2py               2.823390       0.000000
                                                         0.590232       0.000000
                                                         0.152426       0.135758
                                                         0.038107       0.000000
                          2       2    2pz               2.823390       0.000000
                                                         0.590232       0.000000
                                                         0.152426       0.135758
                                                         0.038107       0.000000

                          2       3    3px               2.823390       0.000000
                                                         0.590232       0.000000
                                                         0.152426       0.000000
                                                         0.038107       0.023999
                          2       3    3py               2.823390       0.000000
                                                         0.590232       0.000000
                                                         0.152426       0.000000
                                                         0.038107       0.023999
                          2       3    3pz               2.823390       0.000000
                                                         0.590232       0.000000
                                                         0.152426       0.000000
                                                         0.038107       0.023999

                          3       1    1dx2              0.800000       1.113825
                                                         0.114320       0.000000
                          3       1    1dxy              0.800000       1.929201
                                                         0.114320       0.000000
                          3       1    1dxz              0.800000       1.929201
                                                         0.114320       0.000000
                          3       1    1dy2              0.800000       1.113825
                                                         0.114320       0.000000
                          3       1    1dyz              0.800000       1.929201
                                                         0.114320       0.000000
                          3       1    1dz2              0.800000       1.113825
                                                         0.114320       0.000000

                          3       2    2dx2              0.800000       0.000000
                                                         0.114320       0.036993
                          3       2    2dxy              0.800000       0.000000
                                                         0.114320       0.064074
                          3       2    2dxz              0.800000       0.000000
                                                         0.114320       0.064074
                          3       2    2dy2              0.800000       0.000000
                                                         0.114320       0.036993
                          3       2    2dyz              0.800000       0.000000
                                                         0.114320       0.064074
                          3       2    2dz2              0.800000       0.000000
                                                         0.114320       0.036993

       Atomic covalent radius [Angstrom]:                                  0.770

       Atomic van der Waals radius [Angstrom]:                             1.700

     The atoms of this atomic kind are PAW atoms (GAPW):
       Hard Gaussian function radius:                                      1.512
       Rho0 radius:                                                        1.512
       Maximum GTO radius used for PAW projector construction:            24.566

     GAPW Soft Basis Set                                        aug-pcseg-2_soft

       Number of orbital shell sets:                                          14
       Number of orbital shells:                                              14
       Number of primitive Cartesian functions:                               15
       Number of Cartesian basis functions:                                   55
       Number of spherical basis functions:                                   46
       Norm type:                                                              2

       Normalised Cartesian orbitals:

                        Set   Shell   Orbital            Exponent    Coefficient

                          1       1    1s                2.893090       0.510144

                          2       1    1s                0.556124       0.494060

                          3       1    1s                0.228813       0.235787

                          4       1    1s                0.093634       0.120638

                          5       1    1s                0.035418       0.058187

                          6       1    1px               2.249540       1.244013
                                                         0.767681       0.729116
                          6       1    1py               2.249540       1.244013
                                                         0.767681       0.729116
                          6       1    1pz               2.249540       1.244013
                                                         0.767681       0.729116

                          7       1    1px               0.263283       0.268824
                          7       1    1py               0.263283       0.268824
                          7       1    1pz               0.263283       0.268824

                          8       1    1px               0.084874       0.065300
                          8       1    1py               0.084874       0.065300
                          8       1    1pz               0.084874       0.065300

                          9       1    1px               0.025704       0.014670
                          9       1    1py               0.025704       0.014670
                          9       1    1pz               0.025704       0.014670

                         10       1    1dx2              1.400000       2.965743
                         10       1    1dxy              1.400000       5.136818
                         10       1    1dxz              1.400000       5.136818
                         10       1    1dy2              1.400000       2.965743
                         10       1    1dyz              1.400000       5.136818
                         10       1    1dz2              1.400000       2.965743

                         11       1    1dx2              0.450000       0.406941
                         11       1    1dxy              0.450000       0.704842
                         11       1    1dxz              0.450000       0.704842
                         11       1    1dy2              0.450000       0.406941
                         11       1    1dyz              0.450000       0.704842
                         11       1    1dz2              0.450000       0.406941

                         12       1    1dx2              0.077111       0.018572
                         12       1    1dxy              0.077111       0.032168
                         12       1    1dxz              0.077111       0.032168
                         12       1    1dy2              0.077111       0.018572
                         12       1    1dyz              0.077111       0.032168
                         12       1    1dz2              0.077111       0.018572

                         13       1    1fx3              0.950000       1.311694
                         13       1    1fx2y             0.950000       2.933037
                         13       1    1fx2z             0.950000       2.933037
                         13       1    1fxy2             0.950000       2.933037
                         13       1    1fxyz             0.950000       5.080169
                         13       1    1fxz2             0.950000       2.933037
                         13       1    1fy3              0.950000       1.311694
                         13       1    1fy2z             0.950000       2.933037
                         13       1    1fyz2             0.950000       2.933037
                         13       1    1fz3              0.950000       1.311694

                         14       1    1fx3              0.102810       0.008811
                         14       1    1fx2y             0.102810       0.019702
                         14       1    1fx2z             0.102810       0.019702
                         14       1    1fxy2             0.102810       0.019702
                         14       1    1fxyz             0.102810       0.034126
                         14       1    1fxz2             0.102810       0.019702
                         14       1    1fy3              0.102810       0.008811
                         14       1    1fy2z             0.102810       0.019702
                         14       1    1fyz2             0.102810       0.019702
                         14       1    1fz3              0.102810       0.008811

     AE Potential information for                                            ALL

       Description:                                       All-electron potential
                                          Krack, Parrinello, PCCP 2, 2105 (2000)

       Gaussian exponent of the core charge distribution:               4.109048
       Electronic configuration (s p d ...):                           4   2   0

  3. Atomic kind: O                                     Number of atoms:       1

     Orbital Basis Set                                        DZVP-MOLOPT-SR-GTH

       Number of orbital shell sets:                                           1
       Number of orbital shells:                                               5
       Number of primitive Cartesian functions:                                5
       Number of Cartesian basis functions:                                   14
       Number of spherical basis functions:                                   13
       Norm type:                                                              2

       Normalised Cartesian orbitals:

                        Set   Shell   Orbital            Exponent    Coefficient

                          1       1    2s               10.389228       0.396646
                                                         3.849621       0.208811
                                                         1.388401      -0.301641
                                                         0.496955      -0.274061
                                                         0.162492      -0.033677

                          1       2    3s               10.389228       0.303673
                                                         3.849621       0.240943
                                                         1.388401      -0.313066
                                                         0.496955      -0.043055
                                                         0.162492       0.213991

                          1       3    3px              10.389228      -1.530415
                                                         3.849621      -1.371928
                                                         1.388401      -0.761951
                                                         0.496955      -0.253695
                                                         0.162492      -0.035541
                          1       3    3py              10.389228      -1.530415
                                                         3.849621      -1.371928
                                                         1.388401      -0.761951
                                                         0.496955      -0.253695
                                                         0.162492      -0.035541
                          1       3    3pz              10.389228      -1.530415
                                                         3.849621      -1.371928
                                                         1.388401      -0.761951
                                                         0.496955      -0.253695
                                                         0.162492      -0.035541

                          1       4    4px              10.389228      -0.565392
                                                         3.849621      -0.038231
                                                         1.388401      -0.382373
                                                         0.496955       0.179070
                                                         0.162492       0.122714
                          1       4    4py              10.389228      -0.565392
                                                         3.849621      -0.038231
                                                         1.388401      -0.382373
                                                         0.496955       0.179070
                                                         0.162492       0.122714
                          1       4    4pz              10.389228      -0.565392
                                                         3.849621      -0.038231
                                                         1.388401      -0.382373
                                                         0.496955       0.179070
                                                         0.162492       0.122714

                          1       5    4dx2             10.389228       1.867377
                                                         3.849621       0.670994
                                                         1.388401       1.353441
                                                         0.496955       0.273538
                                                         0.162492       0.006620
                          1       5    4dxy             10.389228       3.234392
                                                         3.849621       1.162195
                                                         1.388401       2.344229
                                                         0.496955       0.473781
                                                         0.162492       0.011466
                          1       5    4dxz             10.389228       3.234392
                                                         3.849621       1.162195
                                                         1.388401       2.344229
                                                         0.496955       0.473781
                                                         0.162492       0.011466
                          1       5    4dy2             10.389228       1.867377
                                                         3.849621       0.670994
                                                         1.388401       1.353441
                                                         0.496955       0.273538
                                                         0.162492       0.006620
                          1       5    4dyz             10.389228       3.234392
                                                         3.849621       1.162195
                                                         1.388401       2.344229
                                                         0.496955       0.473781
                                                         0.162492       0.011466
                          1       5    4dz2             10.389228       1.867377
                                                         3.849621       0.670994
                                                         1.388401       1.353441
                                                         0.496955       0.273538
                                                         0.162492       0.006620

     Auxiliary Fit Basis Set                                                FIT3

       Number of orbital shell sets:                                           6
       Number of orbital shells:                                               6
       Number of primitive Cartesian functions:                                6
       Number of Cartesian basis functions:                                   12
       Number of spherical basis functions:                                   12
       Norm type:                                                              2

       Normalised Cartesian orbitals:

                        Set   Shell   Orbital            Exponent    Coefficient

                          1       1    1s                0.270610       0.267404

                          2       1    1s                0.884930       0.650267

                          3       1    1s                8.504090       3.549204

                          4       1    1px               0.310400       0.330250
                          4       1    1py               0.310400       0.330250
                          4       1    1pz               0.310400       0.330250

                          5       1    1px               1.382560       2.136954
                          5       1    1py               1.382560       2.136954
                          5       1    1pz               1.382560       2.136954

                          6       1    1px               6.082640      13.616178
                          6       1    1py               6.082640      13.616178
                          6       1    1pz               6.082640      13.616178

       Atomic covalent radius [Angstrom]:                                  0.730

       Atomic van der Waals radius [Angstrom]:                             1.520

     The atoms of this atomic kind are PAW atoms (GAPW):
       Hard Gaussian function radius:                                      1.512
       Rho0 radius:                                                        1.512
       Maximum GTO radius used for PAW projector construction:            24.566

     GAPW Soft Basis Set                                 DZVP-MOLOPT-SR-GTH_soft

       Number of orbital shell sets:                                           1
       Number of orbital shells:                                               5
       Number of primitive Cartesian functions:                                4
       Number of Cartesian basis functions:                                   14
       Number of spherical basis functions:                                   13
       Norm type:                                                              2

       Normalised Cartesian orbitals:

                        Set   Shell   Orbital            Exponent    Coefficient

                          1       1    2s                3.849621       0.208811
                                                         1.388401      -0.301641
                                                         0.496955      -0.274061
                                                         0.162492      -0.033677

                          1       2    3s                3.849621       0.240943
                                                         1.388401      -0.313066
                                                         0.496955      -0.043055
                                                         0.162492       0.213991

                          1       3    3px               3.849621      -1.371928
                                                         1.388401      -0.761951
                                                         0.496955      -0.253695
                                                         0.162492      -0.035541
                          1       3    3py               3.849621      -1.371928
                                                         1.388401      -0.761951
                                                         0.496955      -0.253695
                                                         0.162492      -0.035541
                          1       3    3pz               3.849621      -1.371928
                                                         1.388401      -0.761951
                                                         0.496955      -0.253695
                                                         0.162492      -0.035541

                          1       4    4px               3.849621      -0.038231
                                                         1.388401      -0.382373
                                                         0.496955       0.179070
                                                         0.162492       0.122714
                          1       4    4py               3.849621      -0.038231
                                                         1.388401      -0.382373
                                                         0.496955       0.179070
                                                         0.162492       0.122714
                          1       4    4pz               3.849621      -0.038231
                                                         1.388401      -0.382373
                                                         0.496955       0.179070
                                                         0.162492       0.122714

                          1       5    4dx2              3.849621       0.670994
                                                         1.388401       1.353441
                                                         0.496955       0.273538
                                                         0.162492       0.006620
                          1       5    4dxy              3.849621       1.162195
                                                         1.388401       2.344229
                                                         0.496955       0.473781
                                                         0.162492       0.011466
                          1       5    4dxz              3.849621       1.162195
                                                         1.388401       2.344229
                                                         0.496955       0.473781
                                                         0.162492       0.011466
                          1       5    4dy2              3.849621       0.670994
                                                         1.388401       1.353441
                                                         0.496955       0.273538
                                                         0.162492       0.006620
                          1       5    4dyz              3.849621       1.162195
                                                         1.388401       2.344229
                                                         0.496955       0.473781
                                                         0.162492       0.011466
                          1       5    4dz2              3.849621       0.670994
[...]
    49 OT CG       0.79E-05  145.9     0.00000160      -683.9734678492  2.18E-09

  Trace(PS):                                  456.9999997974
  Electronic density on regular grids:       -451.0246726184        5.9753273816
  Core density on regular grids:              457.0000000000        0.0000000000
  Hard and soft densities (Lebedev):        -1657.9892412956    -1652.0138596700
  Total Rho_soft + Rho1_hard - Rho1_soft     -457.0000542440
  Total charge density (r-space):              -0.0000542440
  Total Rho_soft + Rho0_soft (g-space):        -0.0000557651

  Wfn fit exchange-correlation energy:                            83.9252824671
  Wfn fit soft/hard atomic rho1 Exc contribution:                 -2.1157063039

  Core Hamiltonian energy:                                        463.3065735644
  Hartree energy:                                                1314.6638791191
  Exchange-correlation energy:                                   -110.8732947580

  GAPW| Exc from hard and soft atomic rho1:                        -8.7345567712
  GAPW| local Eh = 1 center integrals:                           -708.7803567594
        Maximum deviation from MO S-orthonormality                    0.6323E-04
        Minimum/Maximum MO magnitude              0.3460E+00          0.1089E+01
    50 OT LS       0.16E-04  127.3                     -683.9734678470

  Trace(PS):                                  456.9999997972
  Electronic density on regular grids:       -451.0246726195        5.9753273805
  Core density on regular grids:              457.0000000000        0.0000000000
  Hard and soft densities (Lebedev):        -1657.9892413144    -1652.0138596900
  Total Rho_soft + Rho1_hard - Rho1_soft     -457.0000542438
  Total charge density (r-space):              -0.0000542438
  Total Rho_soft + Rho0_soft (g-space):        -0.0000557649

  Wfn fit exchange-correlation energy:                            83.9252824673
  Wfn fit soft/hard atomic rho1 Exc contribution:                 -2.1157063052

  Core Hamiltonian energy:                                        463.3065735648
  Hartree energy:                                                1314.6638791235
  Exchange-correlation energy:                                   -110.8732947588

  GAPW| Exc from hard and soft atomic rho1:                        -8.7345567690
  GAPW| local Eh = 1 center integrals:                           -708.7803567649
        Maximum deviation from MO S-orthonormality                    0.6324E-04
        Minimum/Maximum MO magnitude              0.3460E+00          0.1089E+01
    51 OT CG       0.16E-04  146.3     0.00000160      -683.9734678448  4.36E-09

  Trace(PS):                                  456.9999997968
  Electronic density on regular grids:       -451.0246726216        5.9753273784
  Core density on regular grids:              457.0000000000        0.0000000000
  Hard and soft densities (Lebedev):        -1657.9892413520    -1652.0138597302
  Total Rho_soft + Rho1_hard - Rho1_soft     -457.0000542434
  Total charge density (r-space):              -0.0000542434
  Total Rho_soft + Rho0_soft (g-space):        -0.0000557645

  Wfn fit exchange-correlation energy:                            83.9252824677
  Wfn fit soft/hard atomic rho1 Exc contribution:                 -2.1157063079

  Core Hamiltonian energy:                                        463.3065735657
  Hartree energy:                                                1314.6638791324
  Exchange-correlation energy:                                   -110.8732947603

  GAPW| Exc from hard and soft atomic rho1:                        -8.7345567647
  GAPW| local Eh = 1 center integrals:                           -708.7803567759
        Maximum deviation from MO S-orthonormality                    0.6327E-04
        Minimum/Maximum MO magnitude              0.3460E+00          0.1089E+01
    52 OT LS       0.31E-04  127.0                     -683.9734678405

  Trace(PS):                                  456.9999997964
  Electronic density on regular grids:       -451.0246726237        5.9753273763
  Core density on regular grids:              457.0000000000        0.0000000000
  Hard and soft densities (Lebedev):        -1657.9892413896    -1652.0138597704
  Total Rho_soft + Rho1_hard - Rho1_soft     -457.0000542430
  Total charge density (r-space):              -0.0000542430
  Total Rho_soft + Rho0_soft (g-space):        -0.0000557641

  Wfn fit exchange-correlation energy:                            83.9252824680
  Wfn fit soft/hard atomic rho1 Exc contribution:                 -2.1157063106

  Core Hamiltonian energy:                                        463.3065735666
  Hartree energy:                                                1314.6638791412
  Exchange-correlation energy:                                   -110.8732947618

  GAPW| Exc from hard and soft atomic rho1:                        -8.7345567603
  GAPW| local Eh = 1 center integrals:                           -708.7803567868
        Maximum deviation from MO S-orthonormality                    0.6329E-04
        Minimum/Maximum MO magnitude              0.3460E+00          0.1089E+01
    53 OT CG       0.31E-04  145.7     0.00000160      -683.9734678361  8.72E-09

  Trace(PS):                                  456.9999997955
  Electronic density on regular grids:       -451.0246726280        5.9753273720
  Core density on regular grids:              457.0000000000        0.0000000000
  Hard and soft densities (Lebedev):        -1657.9892414648    -1652.0138598507
  Total Rho_soft + Rho1_hard - Rho1_soft     -457.0000542422
  Total charge density (r-space):              -0.0000542422
  Total Rho_soft + Rho0_soft (g-space):        -0.0000557633

  Wfn fit exchange-correlation energy:                            83.9252824688
  Wfn fit soft/hard atomic rho1 Exc contribution:                 -2.1157063159

  Core Hamiltonian energy:                                        463.3065735683
  Hartree energy:                                                1314.6638791589
  Exchange-correlation energy:                                   -110.8732947649

  GAPW| Exc from hard and soft atomic rho1:                        -8.7345567516
  GAPW| local Eh = 1 center integrals:                           -708.7803568087
        Maximum deviation from MO S-orthonormality                    0.6335E-04
        Minimum/Maximum MO magnitude              0.3460E+00          0.1089E+01
    54 OT LS       0.31E-06  126.9                     -683.9734678274

  Trace(PS):                                  456.9999997964
  Electronic density on regular grids:       -451.0246726238        5.9753273762
  Core density on regular grids:              457.0000000000        0.0000000000
  Hard and soft densities (Lebedev):        -1657.9892413904    -1652.0138597712
  Total Rho_soft + Rho1_hard - Rho1_soft     -457.0000542430
  Total charge density (r-space):              -0.0000542430
  Total Rho_soft + Rho0_soft (g-space):        -0.0000557641

  Wfn fit exchange-correlation energy:                            83.9252824680
  Wfn fit soft/hard atomic rho1 Exc contribution:                 -2.1157063106

  Core Hamiltonian energy:                                        463.3065735666
  Hartree energy:                                                1314.6638791414
  Exchange-correlation energy:                                   -110.8732947619

  GAPW| Exc from hard and soft atomic rho1:                        -8.7345567602
  GAPW| local Eh = 1 center integrals:                           -708.7803567871
        Maximum deviation from MO S-orthonormality                    0.6329E-04
        Minimum/Maximum MO magnitude              0.3460E+00          0.1089E+01
    55 OT CG       0.31E-06  145.8     0.00000160      -683.9734678360  8.89E-11

  Trace(PS):                                  456.9999997964
  Electronic density on regular grids:       -451.0246726238        5.9753273762
  Core density on regular grids:              457.0000000000        0.0000000000
  Hard and soft densities (Lebedev):        -1657.9892413911    -1652.0138597720
  Total Rho_soft + Rho1_hard - Rho1_soft     -457.0000542430
  Total charge density (r-space):              -0.0000542430
  Total Rho_soft + Rho0_soft (g-space):        -0.0000557641

  Wfn fit exchange-correlation energy:                            83.9252824681
  Wfn fit soft/hard atomic rho1 Exc contribution:                 -2.1157063107

  Core Hamiltonian energy:                                        463.3065735666
  Hartree energy:                                                1314.6638791416
  Exchange-correlation energy:                                   -110.8732947619

  GAPW| Exc from hard and soft atomic rho1:                        -8.7345567601
  GAPW| local Eh = 1 center integrals:                           -708.7803567873
        Maximum deviation from MO S-orthonormality                    0.6329E-04
        Minimum/Maximum MO magnitude              0.3460E+00          0.1089E+01
    56 OT LS       0.63E-06  127.1                     -683.9734678359

  Trace(PS):                                  456.9999997963
  Electronic density on regular grids:       -451.0246726239        5.9753273761
  Core density on regular grids:              457.0000000000        0.0000000000
  Hard and soft densities (Lebedev):        -1657.9892413919    -1652.0138597728
  Total Rho_soft + Rho1_hard - Rho1_soft     -457.0000542430
  Total charge density (r-space):              -0.0000542430
  Total Rho_soft + Rho0_soft (g-space):        -0.0000557641

  Wfn fit exchange-correlation energy:                            83.9252824681
  Wfn fit soft/hard atomic rho1 Exc contribution:                 -2.1157063107

  Core Hamiltonian energy:                                        463.3065735666
  Hartree energy:                                                1314.6638791418
  Exchange-correlation energy:                                   -110.8732947619

  GAPW| Exc from hard and soft atomic rho1:                        -8.7345567600
  GAPW| local Eh = 1 center integrals:                           -708.7803567875
        Maximum deviation from MO S-orthonormality                    0.6329E-04
        Minimum/Maximum MO magnitude              0.3460E+00          0.1089E+01
    57 OT CG       0.63E-06  145.9     0.00000160      -683.9734678358  1.74E-10

  Trace(PS):                                  456.9999997963
  Electronic density on regular grids:       -451.0246726240        5.9753273760
  Core density on regular grids:              457.0000000000        0.0000000000
  Hard and soft densities (Lebedev):        -1657.9892413934    -1652.0138597744
  Total Rho_soft + Rho1_hard - Rho1_soft     -457.0000542430
  Total charge density (r-space):              -0.0000542430
  Total Rho_soft + Rho0_soft (g-space):        -0.0000557641

  Wfn fit exchange-correlation energy:                            83.9252824681
  Wfn fit soft/hard atomic rho1 Exc contribution:                 -2.1157063109

  Core Hamiltonian energy:                                        463.3065735667
  Hartree energy:                                                1314.6638791421
  Exchange-correlation energy:                                   -110.8732947620

  GAPW| Exc from hard and soft atomic rho1:                        -8.7345567599
  GAPW| local Eh = 1 center integrals:                           -708.7803567879
        Maximum deviation from MO S-orthonormality                    0.6330E-04
        Minimum/Maximum MO magnitude              0.3460E+00          0.1089E+01
    58 OT LS       0.13E-05  127.3                     -683.9734678357

  Trace(PS):                                  456.9999997963
  Electronic density on regular grids:       -451.0246726240        5.9753273760
  Core density on regular grids:              457.0000000000        0.0000000000
  Hard and soft densities (Lebedev):        -1657.9892413949    -1652.0138597760
  Total Rho_soft + Rho1_hard - Rho1_soft     -457.0000542430
  Total charge density (r-space):              -0.0000542430
  Total Rho_soft + Rho0_soft (g-space):        -0.0000557640

  Wfn fit exchange-correlation energy:                            83.9252824681
  Wfn fit soft/hard atomic rho1 Exc contribution:                 -2.1157063110

  Core Hamiltonian energy:                                        463.3065735667
  Hartree energy:                                                1314.6638791425
  Exchange-correlation energy:                                   -110.8732947621

  GAPW| Exc from hard and soft atomic rho1:                        -8.7345567597
  GAPW| local Eh = 1 center integrals:                           -708.7803567884
        Maximum deviation from MO S-orthonormality                    0.6330E-04
        Minimum/Maximum MO magnitude              0.3460E+00          0.1089E+01
    59 OT CG       0.13E-05  145.8     0.00000160      -683.9734678355  3.49E-10

  Trace(PS):                                  456.9999997963
  Electronic density on regular grids:       -451.0246726242        5.9753273758
  Core density on regular grids:              457.0000000000        0.0000000000
  Hard and soft densities (Lebedev):        -1657.9892413979    -1652.0138597792
  Total Rho_soft + Rho1_hard - Rho1_soft     -457.0000542429
  Total charge density (r-space):              -0.0000542429
  Total Rho_soft + Rho0_soft (g-space):        -0.0000557640

  Wfn fit exchange-correlation energy:                            83.9252824681
  Wfn fit soft/hard atomic rho1 Exc contribution:                 -2.1157063112

  Core Hamiltonian energy:                                        463.3065735668
  Hartree energy:                                                1314.6638791432
  Exchange-correlation energy:                                   -110.8732947622

  GAPW| Exc from hard and soft atomic rho1:                        -8.7345567593
  GAPW| local Eh = 1 center integrals:                           -708.7803567892
        Maximum deviation from MO S-orthonormality                    0.6330E-04
        Minimum/Maximum MO magnitude              0.3460E+00          0.1089E+01
    60 OT LS       0.25E-05  126.9                     -683.9734678351

  Trace(PS):                                  456.9999997962
  Electronic density on regular grids:       -451.0246726244        5.9753273756
  Core density on regular grids:              457.0000000000        0.0000000000
  Hard and soft densities (Lebedev):        -1657.9892414009    -1652.0138597824
  Total Rho_soft + Rho1_hard - Rho1_soft     -457.0000542429
  Total charge density (r-space):              -0.0000542429
  Total Rho_soft + Rho0_soft (g-space):        -0.0000557640

  Wfn fit exchange-correlation energy:                            83.9252824682
  Wfn fit soft/hard atomic rho1 Exc contribution:                 -2.1157063114

  Core Hamiltonian energy:                                        463.3065735668
  Hartree energy:                                                1314.6638791439
  Exchange-correlation energy:                                   -110.8732947623

  GAPW| Exc from hard and soft atomic rho1:                        -8.7345567590
  GAPW| local Eh = 1 center integrals:                           -708.7803567901
        Maximum deviation from MO S-orthonormality                    0.6330E-04
        Minimum/Maximum MO magnitude              0.3460E+00          0.1089E+01
    61 OT CG       0.25E-05  146.0     0.00000160      -683.9734678348  6.95E-10

  Trace(PS):                                  456.9999997962
  Electronic density on regular grids:       -451.0246726247        5.9753273753
  Core density on regular grids:              457.0000000000        0.0000000000
  Hard and soft densities (Lebedev):        -1657.9892414069    -1652.0138597888
  Total Rho_soft + Rho1_hard - Rho1_soft     -457.0000542428
  Total charge density (r-space):              -0.0000542428
  Total Rho_soft + Rho0_soft (g-space):        -0.0000557639

  Wfn fit exchange-correlation energy:                            83.9252824682
  Wfn fit soft/hard atomic rho1 Exc contribution:                 -2.1157063118

  Core Hamiltonian energy:                                        463.3065735670
  Hartree energy:                                                1314.6638791453
  Exchange-correlation energy:                                   -110.8732947625

  GAPW| Exc from hard and soft atomic rho1:                        -8.7345567583
  GAPW| local Eh = 1 center integrals:                           -708.7803567919
        Maximum deviation from MO S-orthonormality                    0.6331E-04
        Minimum/Maximum MO magnitude              0.3460E+00          0.1089E+01
    62 OT LS       0.50E-05  127.0                     -683.9734678341

  Trace(PS):                                  456.9999997961
  Electronic density on regular grids:       -451.0246726251        5.9753273749
  Core density on regular grids:              457.0000000000        0.0000000000
  Hard and soft densities (Lebedev):        -1657.9892414129    -1652.0138597953
  Total Rho_soft + Rho1_hard - Rho1_soft     -457.0000542428
  Total charge density (r-space):              -0.0000542428
  Total Rho_soft + Rho0_soft (g-space):        -0.0000557638

  Wfn fit exchange-correlation energy:                            83.9252824683
  Wfn fit soft/hard atomic rho1 Exc contribution:                 -2.1157063122

  Core Hamiltonian energy:                                        463.3065735671
  Hartree energy:                                                1314.6638791467
  Exchange-correlation energy:                                   -110.8732947628

  GAPW| Exc from hard and soft atomic rho1:                        -8.7345567576
  GAPW| local Eh = 1 center integrals:                           -708.7803567936
        Maximum deviation from MO S-orthonormality                    0.6331E-04
        Minimum/Maximum MO magnitude              0.3460E+00          0.1089E+01
    63 OT CG       0.50E-05  145.8     0.00000160      -683.9734678334  1.40E-09

  Trace(PS):                                  456.9999997960
  Electronic density on regular grids:       -451.0246726258        5.9753273742
  Core density on regular grids:              457.0000000000        0.0000000000
  Hard and soft densities (Lebedev):        -1657.9892414250    -1652.0138598081
  Total Rho_soft + Rho1_hard - Rho1_soft     -457.0000542426
  Total charge density (r-space):              -0.0000542426
  Total Rho_soft + Rho0_soft (g-space):        -0.0000557637

  Wfn fit exchange-correlation energy:                            83.9252824684
  Wfn fit soft/hard atomic rho1 Exc contribution:                 -2.1157063131

  Core Hamiltonian energy:                                        463.3065735674
  Hartree energy:                                                1314.6638791495
  Exchange-correlation energy:                                   -110.8732947633

  GAPW| Exc from hard and soft atomic rho1:                        -8.7345567562
  GAPW| local Eh = 1 center integrals:                           -708.7803567971
        Maximum deviation from MO S-orthonormality                    0.6332E-04
        Minimum/Maximum MO magnitude              0.3460E+00          0.1089E+01
    64 OT LS       0.10E-04  126.9                     -683.9734678320

  Trace(PS):                                  456.9999997958
  Electronic density on regular grids:       -451.0246726264        5.9753273736
  Core density on regular grids:              457.0000000000        0.0000000000
  Hard and soft densities (Lebedev):        -1657.9892414370    -1652.0138598210
  Total Rho_soft + Rho1_hard - Rho1_soft     -457.0000542425
  Total charge density (r-space):              -0.0000542425
  Total Rho_soft + Rho0_soft (g-space):        -0.0000557636

