 DBCSR| CPU Multiplication driver                                           BLAS (U)
 DBCSR| Multrec recursion limit                                              512 (U)
 DBCSR| Multiplication stack size                                           1000 (D)
 DBCSR| Maximum elements for images                                    UNLIMITED (U)
 DBCSR| Multiplicative factor virtual images                                   1 (U)
 DBCSR| Use multiplication densification                                       T (D)
 DBCSR| Multiplication size stacks                                             3 (U)
 DBCSR| Use memory pool for CPU allocation                                     F (U)
 DBCSR| Number of 3D layers                                               SINGLE (U)
 DBCSR| Use MPI memory allocation                                              F (U)
 DBCSR| Use RMA algorithm                                                      F (U)
 DBCSR| Use Communication thread                                               T (U)
 DBCSR| Communication thread load                                             87 (D)
 DBCSR| MPI: My process id                                                     0
 DBCSR| MPI: Number of processes                                              16
 DBCSR| OMP: Current number of threads                                         1
 DBCSR| OMP: Max number of threads                                             1
 DBCSR| Split modifier for TAS multiplication algorithm                  1.0E+00 (U)


  **** **** ******  **  PROGRAM STARTED AT               2025-06-15 00:23:24.247
 ***** ** ***  *** **   PROGRAM STARTED ON                            sebnode123
 **    ****   ******    PROGRAM STARTED BY                                luehrs
 ***** **    ** ** **   PROGRAM PROCESS ID                                569292
  **** **  *******  **  PROGRAM STARTED IN /home/luehrs/PhD/Sodium_batteries/Sod
                                           ium-graphene-curvature/Sinus_surface/
                                           Sinus_6

 CP2K| version string:                                       CP2K version 2023.1
 CP2K| source code revision number:                                  git:b888bd8
 CP2K| cp2kflags: omp libint fftw3 libxc elpa parallel scalapack spglib         
 CP2K| is freely available from                            https://www.cp2k.org/
 CP2K| Program compiled at                          Tue Jan 10 19:52:03 UTC 2023
 CP2K| Program compiled on                                            x86-ubc-01
 CP2K| Program compiled for                                Linux-x86_64-gfortran
 CP2K| Data directory path                                       /usr/share/cp2k
 CP2K| Input file name                                         input.zig-zag.inp

 GLOBAL| Force Environment number                                              1
 GLOBAL| Basis set file name                                      ./BASIS_MOLOPT
 GLOBAL| Potential file name                                    ./GTH_POTENTIALS
 GLOBAL| MM Potential file name                                     MM_POTENTIAL
 GLOBAL| Coordinate file name                                  sinus_relaxed.xyz
 GLOBAL| Method name                                                        CP2K
 GLOBAL| Project name                                 graphene_sinus_Sodium_BSSE
 GLOBAL| Run type                                                           BSSE
 GLOBAL| FFT library                                                       FFTW3
 GLOBAL| Diagonalization library                                            ELPA
 GLOBAL| DGEMM library                                                      BLAS
 GLOBAL| Minimum number of eigenvectors for ELPA usage                        16
 GLOBAL| Orthonormality check for eigenvectors                          DISABLED
 GLOBAL| Matrix multiplication library                                 ScaLAPACK
 GLOBAL| All-to-all communication in single precision                          F
 GLOBAL| FFTs using library dependent lengths                                  F
 GLOBAL| Grid backend                                                       AUTO
 GLOBAL| Global print level                                                  LOW
 GLOBAL| MPI I/O enabled                                                       T
 GLOBAL| Total number of message passing processes                            16
 GLOBAL| Number of threads for this process                                    1
 GLOBAL| This output is from process                                           0
 GLOBAL| Stack size for threads created by OpenMP (OMP_STACKSIZE)        default
 GLOBAL| CPU model name                 Intel(R) Xeon(R) Gold 6144 CPU @ 3.50GHz

 MEMORY| system memory details [Kb]
 MEMORY|                        rank 0           min           max       average
 MEMORY| MemTotal             65579904      65579904      65579904      65579904
 MEMORY| MemFree              61630340      61630340      61630340      61630340
 MEMORY| Buffers                329944        329944        329944        329944
 MEMORY| Cached                1500608       1500608       1500608       1500608
 MEMORY| Slab                   347820        347820        347820        347820
 MEMORY| SReclaimable           140816        140816        140816        140816
 MEMORY| MemLikelyFree        63601708      63601708      63601708      63601708


 GENERATE|  Preliminary Number of Bonds generated:                             0
 GENERATE|  Achieved consistency in connectivity generation.

 *******************************************************************************
 *******************************************************************************
 **                                                                           **
 **     #####                         ##              ##                      **
 **    ##   ##            ##          ##              ##                      **
 **   ##     ##                       ##            ######                    **
 **   ##     ##  ##   ##  ##   #####  ##  ##   ####   ##    #####    #####    **
 **   ##     ##  ##   ##  ##  ##      ## ##   ##      ##   ##   ##  ##   ##   **
 **   ##  ## ##  ##   ##  ##  ##      ####     ###    ##   ######   ######    **
 **    ##  ###   ##   ##  ##  ##      ## ##      ##   ##   ##       ##        **
 **     #######   #####   ##   #####  ##  ##  ####    ##    #####   ##        **
 **           ##                                                    ##        **
 **                                                                           **
 **                                                ... make the atoms dance   **
 **                                                                           **
 **            Copyright (C) by CP2K developers group (2000-2022)             **
 **                      J. Chem. Phys. 152, 194103 (2020)                    **
 **                                                                           **
 *******************************************************************************


 TOTAL NUMBERS AND MAXIMUM NUMBERS

  Total number of            - Atomic kinds:                                   2
                             - Atoms:                                        193
                             - Shell sets:                                   193
                             - Shells:                                       965
                             - Primitive Cartesian functions:                967
                             - Cartesian basis functions:                   2697
                             - Spherical basis functions:                   2505

  Maximum angular momentum of- Orbital basis functions:                        2
                             - Local part of the GTH pseudopotential:          2
                             - Non-local part of the GTH pseudopotential:      1


 SCF PARAMETERS         Density guess:                                    ATOMIC
                        --------------------------------------------------------
                        max_scf:                                             300
                        max_scf_history:                                       0
                        max_diis:                                              4
                        --------------------------------------------------------
                        eps_scf:                                        3.00E-07
                        eps_scf_history:                                0.00E+00
                        eps_diis:                                       1.00E-01
                        eps_eigval:                                     1.00E-05
                        --------------------------------------------------------
                        level_shift [a.u.]:                             0.000000
                        added MOs                                       100    0
                        --------------------------------------------------------
                        Mixing method:                            BROYDEN_MIXING
                                                charge density mixing in g-space
                        --------------------------------------------------------
                        Smear method:                                FERMI_DIRAC
                        Electronic temperature [K]:                        300.0
                        Electronic temperature [a.u.]:                  9.50E-04
                        Accuracy threshold:                             1.00E-10
                        --------------------------------------------------------
                        Outer loop SCF in use 
                        No variables optimised in outer loop
                        eps_scf                                         1.00E-06
                        max_scf                                              300
                        DIIS optimization
                        DIIS buffer length                                     3
                        step_size                                       5.00E-01

 -------------------------------------------------------------------------------
 -                                                                             -
 -  BSSE CALCULATION         FRAGMENT CONF: 10        FRAGMENT SUBCONF: 10     -
 -                           CHARGE =     0           MULTIPLICITY =     0     -
 -                                                                             -
 -                 ATOM INDEX                              ATOM NAME           -
 -                 ----------                              ---------           -
 -                      1                                   C                  -
 -                      2                                   C                  -
 -                      3                                   C                  -
 -                      4                                   C                  -
 -                      5                                   C                  -
 -                      6                                   C                  -
 -                      7                                   C                  -
 -                      8                                   C                  -
 -                      9                                   C                  -
 -                     10                                   C                  -
 -                     11                                   C                  -
 -                     12                                   C                  -
 -                     13                                   C                  -
 -                     14                                   C                  -
 -                     15                                   C                  -
 -                     16                                   C                  -
 -                     17                                   C                  -
 -                     18                                   C                  -
 -                     19                                   C                  -
 -                     20                                   C                  -
 -                     21                                   C                  -
 -                     22                                   C                  -
 -                     23                                   C                  -
 -                     24                                   C                  -
 -                     25                                   C                  -
 -                     26                                   C                  -
 -                     27                                   C                  -
 -                     28                                   C                  -
 -                     29                                   C                  -
 -                     30                                   C                  -
 -                     31                                   C                  -
 -                     32                                   C                  -
 -                     33                                   C                  -
 -                     34                                   C                  -
 -                     35                                   C                  -
 -                     36                                   C                  -
 -                     37                                   C                  -
 -                     38                                   C                  -
 -                     39                                   C                  -
 -                     40                                   C                  -
 -                     41                                   C                  -
 -                     42                                   C                  -
 -                     43                                   C                  -
 -                     44                                   C                  -
 -                     45                                   C                  -
 -                     46                                   C                  -
 -                     47                                   C                  -
 -                     48                                   C                  -
 -                     49                                   C                  -
 -                     50                                   C                  -
 -                     51                                   C                  -
 -                     52                                   C                  -
 -                     53                                   C                  -
 -                     54                                   C                  -
 -                     55                                   C                  -
 -                     56                                   C                  -
 -                     57                                   C                  -
 -                     58                                   C                  -
 -                     59                                   C                  -
 -                     60                                   C                  -
 -                     61                                   C                  -
 -                     62                                   C                  -
 -                     63                                   C                  -
 -                     64                                   C                  -
 -                     65                                   C                  -
 -                     66                                   C                  -
 -                     67                                   C                  -
 -                     68                                   C                  -
 -                     69                                   C                  -
 -                     70                                   C                  -
 -                     71                                   C                  -
 -                     72                                   C                  -
 -                     73                                   C                  -
 -                     74                                   C                  -
 -                     75                                   C                  -
 -                     76                                   C                  -
 -                     77                                   C                  -
 -                     78                                   C                  -
 -                     79                                   C                  -
 -                     80                                   C                  -
 -                     81                                   C                  -
 -                     82                                   C                  -
 -                     83                                   C                  -
 -                     84                                   C                  -
 -                     85                                   C                  -
 -                     86                                   C                  -
 -                     87                                   C                  -
 -                     88                                   C                  -
 -                     89                                   C                  -
 -                     90                                   C                  -
 -                     91                                   C                  -
 -                     92                                   C                  -
 -                     93                                   C                  -
 -                     94                                   C                  -
 -                     95                                   C                  -
 -                     96                                   C                  -
 -                     97                                   C                  -
 -                     98                                   C                  -
 -                     99                                   C                  -
 -                    100                                   C                  -
 -                    101                                   C                  -
 -                    102                                   C                  -
 -                    103                                   C                  -
 -                    104                                   C                  -
 -                    105                                   C                  -
 -                    106                                   C                  -
 -                    107                                   C                  -
 -                    108                                   C                  -
 -                    109                                   C                  -
 -                    110                                   C                  -
 -                    111                                   C                  -
 -                    112                                   C                  -
 -                    113                                   C                  -
 -                    114                                   C                  -
 -                    115                                   C                  -
 -                    116                                   C                  -
 -                    117                                   C                  -
 -                    118                                   C                  -
 -                    119                                   C                  -
 -                    120                                   C                  -
 -                    121                                   C                  -
 -                    122                                   C                  -
 -                    123                                   C                  -
 -                    124                                   C                  -
 -                    125                                   C                  -
 -                    126                                   C                  -
 -                    127                                   C                  -
 -                    128                                   C                  -
 -                    129                                   C                  -
 -                    130                                   C                  -
 -                    131                                   C                  -
 -                    132                                   C                  -
 -                    133                                   C                  -
 -                    134                                   C                  -
 -                    135                                   C                  -
 -                    136                                   C                  -
 -                    137                                   C                  -
 -                    138                                   C                  -
 -                    139                                   C                  -
 -                    140                                   C                  -
 -                    141                                   C                  -
 -                    142                                   C                  -
 -                    143                                   C                  -
 -                    144                                   C                  -
 -                    145                                   C                  -
 -                    146                                   C                  -
 -                    147                                   C                  -
 -                    148                                   C                  -
 -                    149                                   C                  -
 -                    150                                   C                  -
 -                    151                                   C                  -
 -                    152                                   C                  -
 -                    153                                   C                  -
 -                    154                                   C                  -
 -                    155                                   C                  -
 -                    156                                   C                  -
 -                    157                                   C                  -
 -                    158                                   C                  -
 -                    159                                   C                  -
 -                    160                                   C                  -
 -                    161                                   C                  -
 -                    162                                   C                  -
 -                    163                                   C                  -
 -                    164                                   C                  -
 -                    165                                   C                  -
 -                    166                                   C                  -
 -                    167                                   C                  -
 -                    168                                   C                  -
 -                    169                                   C                  -
 -                    170                                   C                  -
 -                    171                                   C                  -
 -                    172                                   C                  -
 -                    173                                   C                  -
 -                    174                                   C                  -
 -                    175                                   C                  -
 -                    176                                   C                  -
 -                    177                                   C                  -
 -                    178                                   C                  -
 -                    179                                   C                  -
 -                    180                                   C                  -
 -                    181                                   C                  -
 -                    182                                   C                  -
 -                    183                                   C                  -
 -                    184                                   C                  -
 -                    185                                   C                  -
 -                    186                                   C                  -
 -                    187                                   C                  -
 -                    188                                   C                  -
 -                    189                                   C                  -
 -                    190                                   C                  -
 -                    191                                   C                  -
 -                    192                                   C                  -
 -------------------------------------------------------------------------------

 *******************************************************************************
 *******************************************************************************
 **                                                                           **
 **     #####                         ##              ##                      **
 **    ##   ##            ##          ##              ##                      **
 **   ##     ##                       ##            ######                    **
 **   ##     ##  ##   ##  ##   #####  ##  ##   ####   ##    #####    #####    **
 **   ##     ##  ##   ##  ##  ##      ## ##   ##      ##   ##   ##  ##   ##   **
 **   ##  ## ##  ##   ##  ##  ##      ####     ###    ##   ######   ######    **
 **    ##  ###   ##   ##  ##  ##      ## ##      ##   ##   ##       ##        **
 **     #######   #####   ##   #####  ##  ##  ####    ##    #####   ##        **
 **           ##                                                    ##        **
 **                                                                           **
 **                                                ... make the atoms dance   **
 **                                                                           **
 **            Copyright (C) by CP2K developers group (2000-2022)             **
 **                      J. Chem. Phys. 152, 194103 (2020)                    **
 **                                                                           **
 *******************************************************************************


 TOTAL NUMBERS AND MAXIMUM NUMBERS

  Total number of            - Atomic kinds:                                   1
                             - Atoms:                                        192
                             - Shell sets:                                   192
                             - Shells:                                       960
                             - Primitive Cartesian functions:                960
                             - Cartesian basis functions:                   2688
                             - Spherical basis functions:                   2496

  Maximum angular momentum of- Orbital basis functions:                        2
                             - Local part of the GTH pseudopotential:          2
                             - Non-local part of the GTH pseudopotential:      0


 SCF PARAMETERS         Density guess:                                    ATOMIC
                        --------------------------------------------------------
                        max_scf:                                             300
                        max_scf_history:                                       0
                        max_diis:                                              4
                        --------------------------------------------------------
                        eps_scf:                                        3.00E-07
                        eps_scf_history:                                0.00E+00
                        eps_diis:                                       1.00E-01
                        eps_eigval:                                     1.00E-05
                        --------------------------------------------------------
                        level_shift [a.u.]:                             0.000000
                        added MOs                                       100    0
                        --------------------------------------------------------
                        Mixing method:                            BROYDEN_MIXING
                                                charge density mixing in g-space
                        --------------------------------------------------------
                        Smear method:                                FERMI_DIRAC
                        Electronic temperature [K]:                        300.0
                        Electronic temperature [a.u.]:                  9.50E-04
                        Accuracy threshold:                             1.00E-10
                        --------------------------------------------------------
                        Outer loop SCF in use 
                        No variables optimised in outer loop
                        eps_scf                                         1.00E-06
                        max_scf                                              300
                        DIIS optimization
                        DIIS buffer length                                     3
                        step_size                                       5.00E-01

 Number of electrons:                                                        768
 Number of occupied orbitals:                                                384
 Number of molecular orbitals:                                               484

 Number of orbital functions:                                               2496
 Number of independent orbital functions:                                   2496

 Extrapolation method: initial_guess


 SCF WAVEFUNCTION OPTIMIZATION

  Step     Update method      Time    Convergence         Total energy    Change
  ------------------------------------------------------------------------------
     1 NoMix/Diag. 0.10E+00    3.6     0.92564213     -1085.8736330031 -1.09E+03
     2 Broy./Diag. 0.10E+00    4.8     0.00229063     -1044.4640591951  4.14E+01
     3 Broy./Diag. 0.10E+00    4.8     0.02550557     -1076.5243167322 -3.21E+01
     4 Broy./Diag. 0.10E+00    4.8     0.00033791     -1090.1770953426 -1.37E+01
     5 Broy./Diag. 0.10E+00    4.9     0.00243269     -1090.7603327699 -5.83E-01
     6 Broy./Diag. 0.10E+00    4.9     0.00009425     -1091.9337774681 -1.17E+00
     7 Broy./Diag. 0.10E+00    4.9     0.00071699     -1092.4544808920 -5.21E-01
     8 Broy./Diag. 0.10E+00    5.0     0.00004422     -1092.8182125560 -3.64E-01
     9 Broy./Diag. 0.10E+00    5.1     0.00063812     -1092.9922362359 -1.74E-01
    10 Broy./Diag. 0.10E+00    5.1     0.00004504     -1093.2123429876 -2.20E-01
    11 Broy./Diag. 0.10E+00    5.1     0.00042526     -1093.1674018438  4.49E-02
    12 Broy./Diag. 0.10E+00    5.1     0.00002628     -1093.2473519582 -8.00E-02
    13 Broy./Diag. 0.10E+00    5.1     0.00035999     -1093.2931311663 -4.58E-02
    14 Broy./Diag. 0.10E+00    5.1     0.00005549     -1093.3374198146 -4.43E-02
    15 Broy./Diag. 0.10E+00    5.1     0.00023356     -1093.3644555567 -2.70E-02
    16 Broy./Diag. 0.10E+00    5.1     0.00005811     -1093.3787760015 -1.43E-02
    17 Broy./Diag. 0.10E+00    5.1     0.00006014     -1093.3600657078  1.87E-02
    18 Broy./Diag. 0.10E+00    5.1     0.00002060     -1093.3491106263  1.10E-02
    19 Broy./Diag. 0.10E+00    5.1     0.00004991     -1093.3476041726  1.51E-03
    20 Broy./Diag. 0.10E+00    5.1     0.00000649     -1093.3523666970 -4.76E-03
    21 Broy./Diag. 0.10E+00    5.1     0.00001079     -1093.3550691241 -2.70E-03
    22 Broy./Diag. 0.10E+00    5.1     0.00000246     -1093.3561200862 -1.05E-03
    23 Broy./Diag. 0.10E+00    5.1     0.00000618     -1093.3600538802 -3.93E-03
    24 Broy./Diag. 0.10E+00    5.1     0.00001004     -1093.3612433674 -1.19E-03
    25 Broy./Diag. 0.10E+00    5.1     0.00001667     -1093.3608149530  4.28E-04
    26 Broy./Diag. 0.10E+00    5.1     0.00000755     -1093.3632180438 -2.40E-03
    27 Broy./Diag. 0.10E+00    5.1     0.00003499     -1093.3662862527 -3.07E-03
    28 Broy./Diag. 0.10E+00    5.1     0.00000324     -1093.3700399333 -3.75E-03
    29 Broy./Diag. 0.10E+00    5.1     0.00001717     -1093.3711050886 -1.07E-03
    30 Broy./Diag. 0.10E+00    5.1     0.00000094     -1093.3717175642 -6.12E-04
    31 Broy./Diag. 0.10E+00    5.1     0.00000408     -1093.3714138733  3.04E-04
    32 Broy./Diag. 0.10E+00    5.2     0.00000143     -1093.3713288589  8.50E-05
    33 Broy./Diag. 0.10E+00    5.2     0.00000265     -1093.3713634004 -3.45E-05
    34 Broy./Diag. 0.10E+00    5.2     0.00000064     -1093.3714495765 -8.62E-05
    35 Broy./Diag. 0.10E+00    5.2     0.00000050     -1093.3713714235  7.82E-05
    36 Broy./Diag. 0.10E+00    5.2     0.00000058     -1093.3714203660 -4.89E-05
    37 Broy./Diag. 0.10E+00    5.1     0.00000095     -1093.3715386421 -1.18E-04
    38 Broy./Diag. 0.10E+00    5.1     0.00000038     -1093.3714879877  5.07E-05
    39 Broy./Diag. 0.10E+00    5.1     0.00000097     -1093.3713877187  1.00E-04
    40 Broy./Diag. 0.10E+00    5.2     0.00000018     -1093.3712965719  9.11E-05

  *** SCF run converged in    40 steps ***


  Electronic density on regular grids:       -768.0000000000        0.0000000000
  Core density on regular grids:              767.9999999993       -0.0000000007
  Total charge density on r-space grids:       -0.0000000006
  Total charge density g-space grids:          -0.0000000006

  Overlap energy of the core charge distribution:               0.00002986767513
  Self energy of the core charge distribution:              -2560.32152193892080
  Core Hamiltonian energy:                                    800.93139071988935
  Hartree energy:                                            1001.42713671305160
  Exchange-correlation energy:                               -335.16188484925345
  Dispersion energy:                                           -0.24644690789774
  Electronic entropic energy:                                  -0.00000017645091
  Fermi energy:                                                -0.10927929389377

  Total energy:                                             -1093.37129657190690

  outer SCF iter =    1 RMS gradient =   0.18E-06 energy =      -1093.3712965719
  outer SCF loop converged in   1 iterations or   40 steps


 *** WARNING in qs_loc_utils.F:1500 :: User requested the calculation of ***
 *** the localized wavefunction but the section LOCALIZE was not         ***
 *** specified. Localization will not be performed!                      ***


 -------------------------------------------------------------------------------
 -                                                                             -
 -  BSSE CALCULATION         FRAGMENT CONF: 01        FRAGMENT SUBCONF: 01     -
 -                           CHARGE =     0           MULTIPLICITY =     0     -
 -                                                                             -
 -                 ATOM INDEX                              ATOM NAME           -
 -                 ----------                              ---------           -
 -                    193                                   Na                 -
 -------------------------------------------------------------------------------

 *******************************************************************************
 *******************************************************************************
 **                                                                           **
 **     #####                         ##              ##                      **
 **    ##   ##            ##          ##              ##                      **
 **   ##     ##                       ##            ######                    **
 **   ##     ##  ##   ##  ##   #####  ##  ##   ####   ##    #####    #####    **
 **   ##     ##  ##   ##  ##  ##      ## ##   ##      ##   ##   ##  ##   ##   **
 **   ##  ## ##  ##   ##  ##  ##      ####     ###    ##   ######   ######    **
 **    ##  ###   ##   ##  ##  ##      ## ##      ##   ##   ##       ##        **
 **     #######   #####   ##   #####  ##  ##  ####    ##    #####   ##        **
 **           ##                                                    ##        **
 **                                                                           **
 **                                                ... make the atoms dance   **
 **                                                                           **
 **            Copyright (C) by CP2K developers group (2000-2022)             **
 **                      J. Chem. Phys. 152, 194103 (2020)                    **
 **                                                                           **
 *******************************************************************************

 *** WARNING in qs_environment.F:1486 :: More added MOs requested than     ***
 *** available. The full set of unoccupied MOs will be used. Use           ***
 *** 'ADDED_MOS -1' to always use all available MOs and to get rid of this ***
 *** warning.                                                              ***



 TOTAL NUMBERS AND MAXIMUM NUMBERS

  Total number of            - Atomic kinds:                                   1
                             - Atoms:                                          1
                             - Shell sets:                                     1
                             - Shells:                                         5
                             - Primitive Cartesian functions:                  7
                             - Cartesian basis functions:                      9
                             - Spherical basis functions:                      9

  Maximum angular momentum of- Orbital basis functions:                        1
                             - Local part of the GTH pseudopotential:          2
                             - Non-local part of the GTH pseudopotential:      1


 SCF PARAMETERS         Density guess:                                    ATOMIC
                        --------------------------------------------------------
                        max_scf:                                             300
                        max_scf_history:                                       0
                        max_diis:                                              4
                        --------------------------------------------------------
                        eps_scf:                                        3.00E-07
                        eps_scf_history:                                0.00E+00
                        eps_diis:                                       1.00E-01
                        eps_eigval:                                     1.00E-05
                        --------------------------------------------------------
                        level_shift [a.u.]:                             0.000000
                        added MOs                                         4    0
                        --------------------------------------------------------
                        Mixing method:                            BROYDEN_MIXING
                                                charge density mixing in g-space
                        --------------------------------------------------------
                        Smear method:                                FERMI_DIRAC
                        Electronic temperature [K]:                        300.0
                        Electronic temperature [a.u.]:                  9.50E-04
                        Accuracy threshold:                             1.00E-10
                        --------------------------------------------------------
                        Outer loop SCF in use 
                        No variables optimised in outer loop
                        eps_scf                                         1.00E-06
                        max_scf                                              300
                        DIIS optimization
                        DIIS buffer length                                     3
                        step_size                                       5.00E-01

 Number of electrons:                                                          9
 Number of occupied orbitals:                                                  5
 Number of molecular orbitals:                                                 9

 Number of orbital functions:                                                  9
 Number of independent orbital functions:                                      9

 Extrapolation method: initial_guess


 SCF WAVEFUNCTION OPTIMIZATION

  Step     Update method      Time    Convergence         Total energy    Change
  ------------------------------------------------------------------------------
     1 NoMix/Diag. 0.10E+00    0.6     0.02074984       -47.1653346966 -4.72E+01
     2 Broy./Diag. 0.10E+00    1.3     0.00009782       -47.1219050964  4.34E-02
     3 Broy./Diag. 0.10E+00    1.3     0.00101033       -47.1632942773 -4.14E-02
     4 Broy./Diag. 0.10E+00    1.4     0.00002407       -47.1710527474 -7.76E-03
     5 Broy./Diag. 0.10E+00    1.4     0.00026050       -47.1710287332  2.40E-05
     6 Broy./Diag. 0.10E+00    1.4     0.00000867       -47.1711510435 -1.22E-04
     7 Broy./Diag. 0.10E+00    1.4     0.00014794       -47.1693828308  1.77E-03
     8 Broy./Diag. 0.10E+00    1.5     0.00001917       -47.1683920728  9.91E-04
     9 Broy./Diag. 0.10E+00    1.5     0.00019700       -47.1677639616  6.28E-04
    10 Broy./Diag. 0.10E+00    1.6     0.00000922       -47.1673910510  3.73E-04
    11 Broy./Diag. 0.10E+00    1.6     0.00009139       -47.1672177151  1.73E-04
    12 Broy./Diag. 0.10E+00    1.6     0.00000151       -47.1671815236  3.62E-05
    13 Broy./Diag. 0.10E+00    1.6     0.00000565       -47.1673032557 -1.22E-04
    14 Broy./Diag. 0.10E+00    1.6     0.00000081       -47.1673255147 -2.23E-05
    15 Broy./Diag. 0.10E+00    1.6     0.00001112       -47.1671511270  1.74E-04
    16 Broy./Diag. 0.10E+00    1.6     0.00000227       -47.1671304898  2.06E-05
    17 Broy./Diag. 0.10E+00    1.6     0.00000236       -47.1671819483 -5.15E-05
    18 Broy./Diag. 0.10E+00    1.6     0.00000206       -47.1672261491 -4.42E-05
    19 Broy./Diag. 0.10E+00    1.6     0.00000212       -47.1672441450 -1.80E-05
    20 Broy./Diag. 0.10E+00    1.6     0.00000189       -47.1672374955  6.65E-06
    21 Broy./Diag. 0.10E+00    1.6     0.00000223       -47.1672180169  1.95E-05
    22 Broy./Diag. 0.10E+00    1.6     0.00000261       -47.1671975954  2.04E-05
    23 Broy./Diag. 0.10E+00    1.6     0.00000360       -47.1671768524  2.07E-05
    24 Broy./Diag. 0.10E+00    1.6     0.00000074       -47.1671751846  1.67E-06
    25 Broy./Diag. 0.10E+00    1.6     0.00000032       -47.1671858230 -1.06E-05
    26 Broy./Diag. 0.10E+00    1.6     0.00000025       -47.1671796608  6.16E-06

  *** SCF run converged in    26 steps ***


  Electronic density on regular grids:         -9.0003982154       -0.0003982154
  Core density on regular grids:                9.0000000000       -0.0000000000
  Total charge density on r-space grids:       -0.0003982154
  Total charge density g-space grids:          -0.0003982154

  Overlap energy of the core charge distribution:               0.00000000000000
  Self energy of the core charge distribution:                -96.60649019442629
  Core Hamiltonian energy:                                     29.76238156483122
  Hartree energy:                                              26.72263935099007
  Exchange-correlation energy:                                 -7.04438474408153
  Dispersion energy:                                           -0.00000859667287
  Electronic entropic energy:                                  -0.00131704147593
  Fermi energy:                                                -0.09138327451117

  Total energy:                                               -47.16717966083532

  outer SCF iter =    1 RMS gradient =   0.25E-06 energy =        -47.1671796608
  outer SCF loop converged in   1 iterations or   26 steps


 *** WARNING in qs_loc_utils.F:1500 :: User requested the calculation of ***
 *** the localized wavefunction but the section LOCALIZE was not         ***
 *** specified. Localization will not be performed!                      ***


 -------------------------------------------------------------------------------
 -                                                                             -
 -  BSSE CALCULATION         FRAGMENT CONF: 11        FRAGMENT SUBCONF: 10     -
 -                           CHARGE =     0           MULTIPLICITY =     0     -
 -                                                                             -
 -                 ATOM INDEX                              ATOM NAME           -
 -                 ----------                              ---------           -
 -                      1                                   C                  -
 -                      2                                   C                  -
 -                      3                                   C                  -
 -                      4                                   C                  -
 -                      5                                   C                  -
 -                      6                                   C                  -
 -                      7                                   C                  -
 -                      8                                   C                  -
 -                      9                                   C                  -
 -                     10                                   C                  -
 -                     11                                   C                  -
 -                     12                                   C                  -
 -                     13                                   C                  -
 -                     14                                   C                  -
 -                     15                                   C                  -
 -                     16                                   C                  -
 -                     17                                   C                  -
 -                     18                                   C                  -
 -                     19                                   C                  -
 -                     20                                   C                  -
 -                     21                                   C                  -
 -                     22                                   C                  -
 -                     23                                   C                  -
 -                     24                                   C                  -
 -                     25                                   C                  -
 -                     26                                   C                  -
 -                     27                                   C                  -
 -                     28                                   C                  -
 -                     29                                   C                  -
 -                     30                                   C                  -
 -                     31                                   C                  -
 -                     32                                   C                  -
 -                     33                                   C                  -
 -                     34                                   C                  -
 -                     35                                   C                  -
 -                     36                                   C                  -
 -                     37                                   C                  -
 -                     38                                   C                  -
 -                     39                                   C                  -
 -                     40                                   C                  -
 -                     41                                   C                  -
 -                     42                                   C                  -
 -                     43                                   C                  -
 -                     44                                   C                  -
 -                     45                                   C                  -
 -                     46                                   C                  -
 -                     47                                   C                  -
 -                     48                                   C                  -
 -                     49                                   C                  -
 -                     50                                   C                  -
 -                     51                                   C                  -
 -                     52                                   C                  -
 -                     53                                   C                  -
 -                     54                                   C                  -
 -                     55                                   C                  -
 -                     56                                   C                  -
 -                     57                                   C                  -
 -                     58                                   C                  -
 -                     59                                   C                  -
 -                     60                                   C                  -
 -                     61                                   C                  -
 -                     62                                   C                  -
 -                     63                                   C                  -
 -                     64                                   C                  -
 -                     65                                   C                  -
 -                     66                                   C                  -
 -                     67                                   C                  -
 -                     68                                   C                  -
 -                     69                                   C                  -
 -                     70                                   C                  -
 -                     71                                   C                  -
 -                     72                                   C                  -
 -                     73                                   C                  -
 -                     74                                   C                  -
 -                     75                                   C                  -
 -                     76                                   C                  -
 -                     77                                   C                  -
 -                     78                                   C                  -
 -                     79                                   C                  -
 -                     80                                   C                  -
 -                     81                                   C                  -
 -                     82                                   C                  -
 -                     83                                   C                  -
 -                     84                                   C                  -
 -                     85                                   C                  -
 -                     86                                   C                  -
 -                     87                                   C                  -
 -                     88                                   C                  -
 -                     89                                   C                  -
 -                     90                                   C                  -
 -                     91                                   C                  -
 -                     92                                   C                  -
 -                     93                                   C                  -
 -                     94                                   C                  -
 -                     95                                   C                  -
 -                     96                                   C                  -
 -                     97                                   C                  -
 -                     98                                   C                  -
 -                     99                                   C                  -
 -                    100                                   C                  -
 -                    101                                   C                  -
 -                    102                                   C                  -
 -                    103                                   C                  -
 -                    104                                   C                  -
 -                    105                                   C                  -
 -                    106                                   C                  -
 -                    107                                   C                  -
 -                    108                                   C                  -
 -                    109                                   C                  -
 -                    110                                   C                  -
 -                    111                                   C                  -
 -                    112                                   C                  -
 -                    113                                   C                  -
 -                    114                                   C                  -
 -                    115                                   C                  -
 -                    116                                   C                  -
 -                    117                                   C                  -
 -                    118                                   C                  -
 -                    119                                   C                  -
 -                    120                                   C                  -
 -                    121                                   C                  -
 -                    122                                   C                  -
 -                    123                                   C                  -
 -                    124                                   C                  -
 -                    125                                   C                  -
 -                    126                                   C                  -
 -                    127                                   C                  -
 -                    128                                   C                  -
 -                    129                                   C                  -
 -                    130                                   C                  -
 -                    131                                   C                  -
 -                    132                                   C                  -
 -                    133                                   C                  -
 -                    134                                   C                  -
 -                    135                                   C                  -
 -                    136                                   C                  -
 -                    137                                   C                  -
 -                    138                                   C                  -
 -                    139                                   C                  -
 -                    140                                   C                  -
 -                    141                                   C                  -
 -                    142                                   C                  -
 -                    143                                   C                  -
 -                    144                                   C                  -
 -                    145                                   C                  -
 -                    146                                   C                  -
 -                    147                                   C                  -
 -                    148                                   C                  -
 -                    149                                   C                  -
 -                    150                                   C                  -
 -                    151                                   C                  -
 -                    152                                   C                  -
 -                    153                                   C                  -
 -                    154                                   C                  -
 -                    155                                   C                  -
 -                    156                                   C                  -
 -                    157                                   C                  -
 -                    158                                   C                  -
 -                    159                                   C                  -
 -                    160                                   C                  -
 -                    161                                   C                  -
 -                    162                                   C                  -
 -                    163                                   C                  -
 -                    164                                   C                  -
 -                    165                                   C                  -
 -                    166                                   C                  -
 -                    167                                   C                  -
 -                    168                                   C                  -
 -                    169                                   C                  -
 -                    170                                   C                  -
 -                    171                                   C                  -
 -                    172                                   C                  -
 -                    173                                   C                  -
 -                    174                                   C                  -
 -                    175                                   C                  -
 -                    176                                   C                  -
 -                    177                                   C                  -
 -                    178                                   C                  -
 -                    179                                   C                  -
 -                    180                                   C                  -
 -                    181                                   C                  -
 -                    182                                   C                  -
 -                    183                                   C                  -
 -                    184                                   C                  -
 -                    185                                   C                  -
 -                    186                                   C                  -
 -                    187                                   C                  -
 -                    188                                   C                  -
 -                    189                                   C                  -
 -                    190                                   C                  -
 -                    191                                   C                  -
 -                    192                                   C                  -
 -                    193                                   Na_ghost           -
 -------------------------------------------------------------------------------

 *******************************************************************************
 *******************************************************************************
 **                                                                           **
 **     #####                         ##              ##                      **
 **    ##   ##            ##          ##              ##                      **
 **   ##     ##                       ##            ######                    **
 **   ##     ##  ##   ##  ##   #####  ##  ##   ####   ##    #####    #####    **
 **   ##     ##  ##   ##  ##  ##      ## ##   ##      ##   ##   ##  ##   ##   **
 **   ##  ## ##  ##   ##  ##  ##      ####     ###    ##   ######   ######    **
 **    ##  ###   ##   ##  ##  ##      ## ##      ##   ##   ##       ##        **
 **     #######   #####   ##   #####  ##  ##  ####    ##    #####   ##        **
 **           ##                                                    ##        **
 **                                                                           **
 **                                                ... make the atoms dance   **
 **                                                                           **
 **            Copyright (C) by CP2K developers group (2000-2022)             **
 **                      J. Chem. Phys. 152, 194103 (2020)                    **
 **                                                                           **
 *******************************************************************************


 TOTAL NUMBERS AND MAXIMUM NUMBERS

  Total number of            - Atomic kinds:                                   2
                             - Atoms:                                        193
                             - Shell sets:                                   193
                             - Shells:                                       965
                             - Primitive Cartesian functions:                967
                             - Cartesian basis functions:                   2697
                             - Spherical basis functions:                   2505

  Maximum angular momentum of- Orbital basis functions:                        2
                             - Local part of the GTH pseudopotential:          2
                             - Non-local part of the GTH pseudopotential:      0


 SCF PARAMETERS         Density guess:                                    ATOMIC
                        --------------------------------------------------------
                        max_scf:                                             300
                        max_scf_history:                                       0
                        max_diis:                                              4
                        --------------------------------------------------------
                        eps_scf:                                        3.00E-07
                        eps_scf_history:                                0.00E+00
                        eps_diis:                                       1.00E-01
                        eps_eigval:                                     1.00E-05
                        --------------------------------------------------------
                        level_shift [a.u.]:                             0.000000
                        added MOs                                       100    0
                        --------------------------------------------------------
                        Mixing method:                            BROYDEN_MIXING
                                                charge density mixing in g-space
                        --------------------------------------------------------
                        Smear method:                                FERMI_DIRAC
                        Electronic temperature [K]:                        300.0
                        Electronic temperature [a.u.]:                  9.50E-04
                        Accuracy threshold:                             1.00E-10
                        --------------------------------------------------------
                        Outer loop SCF in use 
                        No variables optimised in outer loop
                        eps_scf                                         1.00E-06
                        max_scf                                              300
                        DIIS optimization
                        DIIS buffer length                                     3
                        step_size                                       5.00E-01

 Number of electrons:                                                        768
 Number of occupied orbitals:                                                384
 Number of molecular orbitals:                                               484

 Number of orbital functions:                                               2505
 Number of independent orbital functions:                                   2505

 Extrapolation method: initial_guess


 SCF WAVEFUNCTION OPTIMIZATION

  Step     Update method      Time    Convergence         Total energy    Change
  ------------------------------------------------------------------------------
     1 NoMix/Diag. 0.10E+00    3.7     0.92597793     -1085.8736330031 -1.09E+03
     2 Broy./Diag. 0.10E+00    4.8     0.00229325     -1044.4572246970  4.14E+01
     3 Broy./Diag. 0.10E+00    4.9     0.02553309     -1076.5141860430 -3.21E+01
     4 Broy./Diag. 0.10E+00    4.9     0.00033785     -1090.1725104677 -1.37E+01
     5 Broy./Diag. 0.10E+00    4.9     0.00237851     -1090.7559843818 -5.83E-01
     6 Broy./Diag. 0.10E+00    5.0     0.00009423     -1091.9311177334 -1.18E+00
     7 Broy./Diag. 0.10E+00    5.0     0.00072047     -1092.4527390089 -5.22E-01
     8 Broy./Diag. 0.10E+00    5.0     0.00004441     -1092.8178597181 -3.65E-01
     9 Broy./Diag. 0.10E+00    5.1     0.00061392     -1092.9922603211 -1.74E-01
    10 Broy./Diag. 0.10E+00    5.2     0.00004523     -1093.2135564783 -2.21E-01
    11 Broy./Diag. 0.10E+00    5.2     0.00043612     -1093.1681632122  4.54E-02
    12 Broy./Diag. 0.10E+00    5.2     0.00002607     -1093.2483887820 -8.02E-02
    13 Broy./Diag. 0.10E+00    5.2     0.00035032     -1093.2946392535 -4.63E-02
    14 Broy./Diag. 0.10E+00    5.2     0.00005423     -1093.3390856667 -4.44E-02
    15 Broy./Diag. 0.10E+00    5.2     0.00023142     -1093.3659620714 -2.69E-02
    16 Broy./Diag. 0.10E+00    5.2     0.00005824     -1093.3801711080 -1.42E-02
    17 Broy./Diag. 0.10E+00    5.2     0.00006122     -1093.3614785634  1.87E-02
    18 Broy./Diag. 0.10E+00    5.2     0.00002105     -1093.3504624879  1.10E-02
    19 Broy./Diag. 0.10E+00    5.2     0.00004960     -1093.3486432775  1.82E-03
    20 Broy./Diag. 0.10E+00    5.2     0.00000642     -1093.3530510998 -4.41E-03
    21 Broy./Diag. 0.10E+00    5.2     0.00001841     -1093.3557535270 -2.70E-03
    22 Broy./Diag. 0.10E+00    5.2     0.00000597     -1093.3567409890 -9.87E-04
    23 Broy./Diag. 0.10E+00    5.2     0.00001105     -1093.3603588439 -3.62E-03
    24 Broy./Diag. 0.10E+00    5.2     0.00001102     -1093.3611777679 -8.19E-04
    25 Broy./Diag. 0.10E+00    5.2     0.00001827     -1093.3608351318  3.43E-04
    26 Broy./Diag. 0.10E+00    5.2     0.00000723     -1093.3634720362 -2.64E-03
    27 Broy./Diag. 0.10E+00    5.2     0.00003510     -1093.3673996496 -3.93E-03
    28 Broy./Diag. 0.10E+00    5.2     0.00000214     -1093.3719497497 -4.55E-03
    29 Broy./Diag. 0.10E+00    5.2     0.00001622     -1093.3723008848 -3.51E-04
    30 Broy./Diag. 0.10E+00    5.2     0.00000037     -1093.3727197047 -4.19E-04
    31 Broy./Diag. 0.10E+00    5.2     0.00000648     -1093.3728066678 -8.70E-05
    32 Broy./Diag. 0.10E+00    5.2     0.00000043     -1093.3729816173 -1.75E-04
    33 Broy./Diag. 0.10E+00    5.2     0.00000273     -1093.3730282919 -4.67E-05
    34 Broy./Diag. 0.10E+00    5.2     0.00000044     -1093.3730009611  2.73E-05
    35 Broy./Diag. 0.10E+00    5.2     0.00000147     -1093.3728584347  1.43E-04
    36 Broy./Diag. 0.10E+00    5.2     0.00000035     -1093.3727465421  1.12E-04
    37 Broy./Diag. 0.10E+00    5.2     0.00000088     -1093.3727167213  2.98E-05
    38 Broy./Diag. 0.10E+00    5.2     0.00000014     -1093.3726445270  7.22E-05

  *** SCF run converged in    38 steps ***


  Electronic density on regular grids:       -767.9999999984        0.0000000016
  Core density on regular grids:              767.9999999993       -0.0000000007
  Total charge density on r-space grids:        0.0000000009
  Total charge density g-space grids:           0.0000000009

  Overlap energy of the core charge distribution:               0.00002986767513
  Self energy of the core charge distribution:              -2560.32152193892080
  Core Hamiltonian energy:                                    800.92688837666856
  Hartree energy:                                            1001.43249471243507
  Exchange-correlation energy:                               -335.16408846050433
  Dispersion energy:                                           -0.24644690789774
  Electronic entropic energy:                                  -0.00000017646360
  Fermi energy:                                                -0.10924200094861

  Total energy:                                             -1093.37264452700788

  outer SCF iter =    1 RMS gradient =   0.14E-06 energy =      -1093.3726445270
  outer SCF loop converged in   1 iterations or   38 steps


 *** WARNING in qs_loc_utils.F:1500 :: User requested the calculation of ***
 *** the localized wavefunction but the section LOCALIZE was not         ***
 *** specified. Localization will not be performed!                      ***


 -------------------------------------------------------------------------------
 -                                                                             -
 -  BSSE CALCULATION         FRAGMENT CONF: 11        FRAGMENT SUBCONF: 01     -
 -                           CHARGE =     0           MULTIPLICITY =     0     -
 -                                                                             -
 -                 ATOM INDEX                              ATOM NAME           -
 -                 ----------                              ---------           -
 -                      1                                   C_ghost            -
 -                      2                                   C_ghost            -
 -                      3                                   C_ghost            -
 -                      4                                   C_ghost            -
 -                      5                                   C_ghost            -
 -                      6                                   C_ghost            -
 -                      7                                   C_ghost            -
 -                      8                                   C_ghost            -
 -                      9                                   C_ghost            -
 -                     10                                   C_ghost            -
 -                     11                                   C_ghost            -
 -                     12                                   C_ghost            -
 -                     13                                   C_ghost            -
 -                     14                                   C_ghost            -
 -                     15                                   C_ghost            -
 -                     16                                   C_ghost            -
 -                     17                                   C_ghost            -
 -                     18                                   C_ghost            -
 -                     19                                   C_ghost            -
 -                     20                                   C_ghost            -
 -                     21                                   C_ghost            -
 -                     22                                   C_ghost            -
 -                     23                                   C_ghost            -
 -                     24                                   C_ghost            -
 -                     25                                   C_ghost            -
 -                     26                                   C_ghost            -
 -                     27                                   C_ghost            -
 -                     28                                   C_ghost            -
 -                     29                                   C_ghost            -
 -                     30                                   C_ghost            -
 -                     31                                   C_ghost            -
 -                     32                                   C_ghost            -
 -                     33                                   C_ghost            -
 -                     34                                   C_ghost            -
 -                     35                                   C_ghost            -
 -                     36                                   C_ghost            -
 -                     37                                   C_ghost            -
 -                     38                                   C_ghost            -
 -                     39                                   C_ghost            -
 -                     40                                   C_ghost            -
 -                     41                                   C_ghost            -
 -                     42                                   C_ghost            -
 -                     43                                   C_ghost            -
 -                     44                                   C_ghost            -
 -                     45                                   C_ghost            -
 -                     46                                   C_ghost            -
 -                     47                                   C_ghost            -
 -                     48                                   C_ghost            -
 -                     49                                   C_ghost            -
 -                     50                                   C_ghost            -
 -                     51                                   C_ghost            -
 -                     52                                   C_ghost            -
 -                     53                                   C_ghost            -
 -                     54                                   C_ghost            -
 -                     55                                   C_ghost            -
 -                     56                                   C_ghost            -
 -                     57                                   C_ghost            -
 -                     58                                   C_ghost            -
 -                     59                                   C_ghost            -
 -                     60                                   C_ghost            -
 -                     61                                   C_ghost            -
 -                     62                                   C_ghost            -
 -                     63                                   C_ghost            -
 -                     64                                   C_ghost            -
 -                     65                                   C_ghost            -
 -                     66                                   C_ghost            -
 -                     67                                   C_ghost            -
 -                     68                                   C_ghost            -
 -                     69                                   C_ghost            -
 -                     70                                   C_ghost            -
 -                     71                                   C_ghost            -
 -                     72                                   C_ghost            -
 -                     73                                   C_ghost            -
 -                     74                                   C_ghost            -
 -                     75                                   C_ghost            -
 -                     76                                   C_ghost            -
 -                     77                                   C_ghost            -
 -                     78                                   C_ghost            -
 -                     79                                   C_ghost            -
 -                     80                                   C_ghost            -
 -                     81                                   C_ghost            -
 -                     82                                   C_ghost            -
 -                     83                                   C_ghost            -
 -                     84                                   C_ghost            -
 -                     85                                   C_ghost            -
 -                     86                                   C_ghost            -
 -                     87                                   C_ghost            -
[...]
    48 Broy./Diag. 0.10E+00    5.2     0.00000054     -1140.5836446431  3.57E-05
    49 Broy./Diag. 0.10E+00    5.2     0.00000081     -1140.5836211567  2.35E-05
    50 Broy./Diag. 0.10E+00    5.2     0.00000068     -1140.5836399130 -1.88E-05
    51 Broy./Diag. 0.10E+00    5.2     0.00000053     -1140.5836691344 -2.92E-05
    52 Broy./Diag. 0.10E+00    5.2     0.00000083     -1140.5836842234 -1.51E-05
    53 Broy./Diag. 0.10E+00    5.2     0.00000038     -1140.5836882645 -4.04E-06
    54 Broy./Diag. 0.10E+00    5.2     0.00000112     -1140.5836788003  9.46E-06
    55 Broy./Diag. 0.10E+00    5.2     0.00000036     -1140.5836852469 -6.45E-06
    56 Broy./Diag. 0.10E+00    5.2     0.00000123     -1140.5836846226  6.24E-07
    57 Broy./Diag. 0.10E+00    5.2     0.00000028     -1140.5836988487 -1.42E-05

  *** SCF run converged in    57 steps ***


  Electronic density on regular grids:       -777.0004002944       -0.0004002944
  Core density on regular grids:              776.9999999993       -0.0000000007
  Total charge density on r-space grids:       -0.0004002950
  Total charge density g-space grids:          -0.0004002950

  Overlap energy of the core charge distribution:               0.00002986767513
  Self energy of the core charge distribution:              -2656.92801213334678
  Core Hamiltonian energy:                                    831.12519988159784
  Hartree energy:                                            1027.94329243475931
  Exchange-correlation energy:                               -342.47123192829434
  Dispersion energy:                                           -0.25083805520741
  Electronic entropic energy:                                  -0.00213891587335
  Fermi energy:                                                -0.09209338934377

  Total energy:                                             -1140.58369884872013

  outer SCF iter =    1 RMS gradient =   0.28E-06 energy =      -1140.5836988487
  outer SCF loop converged in   1 iterations or   57 steps


 *** WARNING in qs_loc_utils.F:1500 :: User requested the calculation of ***
 *** the localized wavefunction but the section LOCALIZE was not         ***
 *** specified. Localization will not be performed!                      ***


 -------------------------------------------------------------------------------
 -                                                                             -
 -                                 BSSE RESULTS                                -
 -                                                                             -
 -                 CP-corrected Total energy:    -1140.581729                  -
 -                                                                             -
 -                       1-body contribution:    -1093.371297                  -
 -                       1-body contribution:      -47.167180                  -
 -                                                                             -
 -                       2-body contribution:       -0.043253                  -
 -                 BSSE-free interaction energy:       -0.043253               -
 -------------------------------------------------------------------------------

 -------------------------------------------------------------------------------
 -                                                                             -
 -                                DBCSR STATISTICS                             -
 -                                                                             -
 -------------------------------------------------------------------------------
 COUNTER                                    TOTAL       BLAS       SMM       ACC
 flops     9 x     9 x     9                96228     100.0%      0.0%      0.0%
 flops     9 x     9 x   100               615600     100.0%      0.0%      0.0%
 flops     9 x     9 x    32               622080     100.0%      0.0%      0.0%
 flops     9 x     9 x   105               969570     100.0%      0.0%      0.0%
 flops     9 x     9 x   128              5909760     100.0%      0.0%      0.0%
 flops    13 x     9 x     9              7160400     100.0%      0.0%      0.0%
 flops     9 x    13 x     9              7413120     100.0%      0.0%      0.0%
 flops    13 x     9 x   100             75582000     100.0%      0.0%      0.0%
 flops    13 x     9 x    32             76377600     100.0%      0.0%      0.0%
 flops     9 x    13 x   100             78249600     100.0%      0.0%      0.0%
 flops     9 x    13 x    32             79073280     100.0%      0.0%      0.0%
 flops    13 x     9 x   105            119041650     100.0%      0.0%      0.0%
 flops     9 x    13 x   105            123243120     100.0%      0.0%      0.0%
 flops    13 x     9 x   128            725587200     100.0%      0.0%      0.0%
 flops     9 x    13 x   128            751196160     100.0%      0.0%      0.0%
 flops    13 x    13 x     9           1397738160     100.0%      0.0%      0.0%
 flops    13 x    13 x    32          14909207040     100.0%      0.0%      0.0%
 flops    13 x    13 x   105          23237396910     100.0%      0.0%      0.0%
 flops    13 x    13 x   100          30284326800     100.0%      0.0%      0.0%
 flops    13 x    13 x   128         201274295040     100.0%      0.0%      0.0%
 flops inhomo. stacks                           0       0.0%      0.0%      0.0%
 flops total                       273.154101E+09     100.0%      0.0%      0.0%
 flops max/rank                     17.874392E+09     100.0%      0.0%      0.0%
 matmuls inhomo. stacks                         0       0.0%      0.0%      0.0%
 matmuls total                            8134886     100.0%      0.0%      0.0%
 number of processed stacks                 15546     100.0%      0.0%      0.0%
 average stack size                                   523.3       0.0       0.0
 marketing flops                   661.621703E+09
 -------------------------------------------------------------------------------
 # multiplications                            201
 max memory usage/rank             880.672768E+06
 # max total images/rank                        1
 # max 3D layers                                1
 # MPI messages exchanged                   19296
 MPI messages size (bytes):
  total size                         8.387491E+09
  min size                           0.000000E+00
  max size                         648.192000E+03
  average size                     434.675094E+03
 MPI breakdown and total messages size (bytes):
             size <=      128                2340                        0
       128 < size <=     8192                 156                   101088
      8192 < size <=    32768                   0                        0
     32768 < size <=   131072                 960                 43286400
    131072 < size <=  4194304               15840               8344108080
   4194304 < size <= 16777216                   0                        0
  16777216 < size                               0                        0
 -------------------------------------------------------------------------------
 -                                                                             -
 -                      DBCSR MESSAGE PASSING PERFORMANCE                      -
 -                                                                             -
 -------------------------------------------------------------------------------
 ROUTINE             CALLS      AVE VOLUME [Bytes]
 MP_Bcast               21                     12.
 MP_Allreduce         1471                      9.
 MP_Alltoall          5688                 476383.
 MP_ISend             3216                 175615.
 MP_IRecv             3216                 161750.
 -------------------------------------------------------------------------------

 -------------------------------------------------------------------------------
 -                                                                             -
 -                                DBM STATISTICS                               -
 -                                                                             -
 -------------------------------------------------------------------------------
    M  x    N  x    K                                          COUNT     PERCENT
 -------------------------------------------------------------------------------

 -------------------------------------------------------------------------------
 -                                                                             -
 -                                GRID STATISTICS                              -
 -                                                                             -
 -------------------------------------------------------------------------------
 LP    KERNEL             BACKEND                              COUNT     PERCENT
 4     collocate ortho    REF                               20637984      49.99%
 4     integrate ortho    REF                               20176800      48.87%
 3     collocate ortho    REF                                 226182       0.55%
 3     integrate ortho    REF                                 221265       0.54%
 0     collocate general  REF                                   9264       0.02%
 2     collocate ortho    REF                                   8415       0.02%
 2     integrate ortho    REF                                   8211       0.02%
 -------------------------------------------------------------------------------

 MEMORY| Estimated peak process memory [MiB]                                 840

 -------------------------------------------------------------------------------
 -                                                                             -
 -                         MESSAGE PASSING PERFORMANCE                         -
 -                                                                             -
 -------------------------------------------------------------------------------

 ROUTINE             CALLS      AVE VOLUME [Bytes]
 MP_Group               24
 MP_Bcast              555                1740778.
 MP_Allreduce         2888                   1675.
 MP_Sync               251
 MP_Alltoall          2713               23408336.
 MP_SendRecv          8592                 213311.
 MP_ISendRecv         6030                 161680.
 MP_Wait             15039
 MP_comm_split          26
 MP_ISend             6552                1392529.
 MP_IRecv             6552                1392506.
 MP_Recv               115                 613153.
 -------------------------------------------------------------------------------


 -------------------------------------------------------------------------------
 -                                                                             -
 -                           R E F E R E N C E S                               -
 -                                                                             -
 -------------------------------------------------------------------------------
 
 CP2K version 2023.1, the CP2K developers group (2023).
 CP2K is freely available from https://www.cp2k.org/ .

 Kuehne,Thomas D.; Iannuzzi,Marcella; Del Ben,Mauro;
 Rybkin,Vladimir V.; Seewald,Patrick; Stein,Frederick; Laino,Teodoro;
 Khaliullin,Rustam Z.; Schuett,Ole; Schiffmann,Florian; Golze,Dorothea;
 Wilhelm,Jan; Chulkov,Sergey; Bani-Hashemian,Mohammad Hossein;
 Weber,Valery; Borstnik,Urban; Taillefumier,Mathieu;
 Jakobovits,Alice Shoshana; Lazzaro,Alfio; Pabst,Hans; Mueller,Tiziano;
 Schade,Robert; Guidon,Manuel; Andermatt,Samuel; Holmberg,Nico;
 Schenter,Gregory K.; Hehn,Anna; Bussy,Augustin; Belleflamme,Fabian;
 Tabacchi,Gloria; Gloess,Andreas; Lass,Michael; Bethune,Iain;
 Mundy,Christopher J.; Plessl,Christian; Watkins,Matt;
 VandeVondele,Joost; Krack,Matthias; Hutter,Juerg. 
 The Journal of Chemical Physics, 152 (19), (2020). 
 CP2K: An electronic structure and molecular dynamics software package -
 Quickstep: Efficient and accurate electronic structure calculations.
 https://doi.org/10.1063/5.0007045

 Goerigk, Lars; Hansen, Andreas; Bauer, Christoph; Ehrlich, Stephan;
 Najibi, Asim; Grimme, Stefan. , 19 (48), (2017). 
 A look at the density functional theory zoo with the advanced GMTKN55 database
 for general main group thermochemistry, kinetics and noncovalent interactions.
 https://doi.org/10.1039/C7CP04913G

 Schuett, Ole; Messmer, Peter; Hutter, Juerg; VandeVondele, Joost. 
 Electronic Structure Calculations on Graphics Processing Units, John
 Wiley & Sons, Ltd, 173-190 (2016). 
 GPU-Accelerated Sparse Matrix-Matrix Multiplication for
 Linear Scaling Density Functional Theory.
 https://doi.org/10.1002/9781118670712.ch8

 Borstnik, U; VandeVondele, J; Weber, V; Hutter, J. 
 PARALLEL COMPUTING, 40 (5-6), 47-58 (2014). 
 Sparse matrix multiplication: The distributed block-compressed sparse
 row library.
 https://doi.org/10.1016/j.parco.2014.03.012

 Hutter, J; Iannuzzi, M; Schiffmann, F; VandeVondele, J. 
 WIREs Comput Mol Sci., 4 (1), 15-25 (2014). 
 CP2K: atomistic simulations of condensed matter systems.
 https://doi.org/10.1002/wcms.1159

 Marek, A; Blum, V; Johanni, R; Havu, V; Lang, B; Auckenthaler, T;
 Heinecke, A; Bungartz, H; Lederer, H. 
 Journal of Physics: Condensed Matter, 26 (21), (2014). 
 The ELPA library: scalable parallel eigenvalue solutions for
 electronic structure
 theory and computational science.
 https://doi.org/10.1088/0953-8984/26/21/213201

 Grimme, S; Ehrlich, S; Goerigk, L. 
 JOURNAL OF COMPUTATIONAL CHEMISTRY, 32, 1456 (2011). 
 Effect of the damping function in dispersion corrected density functional theory.
 https://doi.org/10.1002/jcc.21759

 Grimme, S; Antony, J; Ehrlich, S; Krieg, H. 
 JOURNAL OF CHEMICAL PHYSICS, 132 (15), 154104 (2010). 
 A consistent and accurate ab initio parametrization of density
 functional dispersion correction (DFT-D) for the 94 elements H-Pu.
 https://doi.org/10.1063/1.3382344

 VandeVondele, J; Hutter, J. 
 JOURNAL OF CHEMICAL PHYSICS, 127 (11), 114105 (2007). 
 Gaussian basis sets for accurate calculations on molecular systems in
 gas and condensed phases.
 https://doi.org/10.1063/1.2770708

 Krack, M. 
 THEORETICAL CHEMISTRY ACCOUNTS, 114 (1-3), 145-152 (2005). 
 Pseudopotentials for H to Kr optimized for gradient-corrected
 exchange-correlation functionals.
 https://doi.org/10.1007/s00214-005-0655-y

 VandeVondele, J; Krack, M; Mohamed, F; Parrinello, M; Chassaing, T;
 Hutter, J. COMPUTER PHYSICS COMMUNICATIONS, 167 (2), 103-128 (2005). 
 QUICKSTEP: Fast and accurate density functional calculations using a
 mixed Gaussian and plane waves approach.
 https://doi.org/10.1016/j.cpc.2004.12.014

 Frigo, M; Johnson, SG. 
 PROCEEDINGS OF THE IEEE, 93 (2), 216-231 (2005). 
 The design and implementation of FFTW3.
 https://doi.org/10.1109/JPROC.2004.840301

 Hartwigsen, C; Goedecker, S; Hutter, J. 
 PHYSICAL REVIEW B, 58 (7), 3641-3662 (1998). 
 Relativistic separable dual-space Gaussian pseudopotentials from H to Rn.
 https://doi.org/10.1103/PhysRevB.58.3641

 Lippert, G; Hutter, J; Parrinello, M. 
 MOLECULAR PHYSICS, 92 (3), 477-487 (1997). 
 A hybrid Gaussian and plane wave density functional scheme.
 https://doi.org/10.1080/002689797170220

 Perdew, JP; Burke, K; Ernzerhof, M. 
 PHYSICAL REVIEW LETTERS, 77 (18), 3865-3868 (1996). 
 Generalized gradient approximation made simple.
 https://doi.org/10.1103/PhysRevLett.77.3865

 Goedecker, S; Teter, M; Hutter, J. 
 PHYSICAL REVIEW B, 54 (3), 1703-1710 (1996). 
 Separable dual-space Gaussian pseudopotentials.
 https://doi.org/10.1103/PhysRevB.54.1703


 -------------------------------------------------------------------------------
 -                                                                             -
 -                                T I M I N G                                  -
 -                                                                             -
 -------------------------------------------------------------------------------
 SUBROUTINE                       CALLS  ASD         SELF TIME        TOTAL TIME
                                MAXIMUM       AVERAGE  MAXIMUM  AVERAGE  MAXIMUM
 CP2K                                 1  1.0    0.019    0.026  928.480  928.482
 qs_energies                          5  2.0    0.000    0.000  926.411  926.679
 scf_env_do_scf                       5  3.0    0.001    0.001  918.758  919.027
 scf_env_do_scf_inner_loop          201  4.0    0.006    0.012  918.757  919.026
 qs_scf_new_mos                     201  5.0    0.003    0.003  383.648  383.912
 eigensolver                        201  6.0    0.012    0.017  374.586  374.661
 qs_ks_update_qs_env                201  5.0    0.001    0.001  256.035  256.094
 rebuild_ks_matrix                  201  6.0    0.001    0.001  255.829  255.888
 qs_ks_build_kohn_sham_matrix       201  7.0    0.030    0.033  255.828  255.887
 cp_fm_diag_elpa                    175  7.0    0.001    0.001  227.029  227.077
 cp_fm_diag_elpa_base               175  8.0  225.553  225.985  226.960  226.960
 qs_rho_update_rho_low              206  5.0    0.001    0.001  186.731  186.773
 calculate_rho_elec                 206  6.0    0.729    0.761  186.730  186.772
 sum_up_and_integrate               201  8.0    1.974    1.998  162.896  162.954
 integrate_v_rspace                 201  9.0    0.005    0.006  160.922  160.978
 density_rs2pw                      206  7.0    0.017    0.019  120.653  157.847
 pw_transfer                       2638  8.9    0.200    0.230  148.543  149.897
 cp_fm_triangular_multiply          603  7.0  146.248  146.633  146.248  146.633
 fft_wrap_pw1pw2                   2236  9.9    0.028    0.031  144.443  145.725
 fft_wrap_pw1pw2_150               1015 10.2   13.810   13.976  134.640  136.315
 grid_integrate_task_list           201 10.0   64.063  116.102   64.063  116.102
 grid_collocate_task_list           206  7.0   64.229  112.246   64.229  112.246
 fft3d_ps                          2236 11.9   58.154   58.909  105.954  107.423
 rs_pw_transfer                    1633  9.5    0.027    0.032   69.663  107.053
 gspace_mixing                      196  5.0    0.696    0.726   96.084   96.084
 mp_alltoall_d11v                  2849  9.3   53.337   92.284   53.337   92.284
 rs_gather_matrices                 201 10.0    0.146    0.169   52.290   91.217
 rs_pw_transfer_RS2PW_150           211  9.0    3.613    4.789   53.170   91.090
 mp_waitany                        6552 11.5   53.177   90.692   53.177   90.692
 broyden_mixing                     196  6.0   68.414   68.577   68.977   69.106
 qs_vxc_create                      201  8.0    0.008    0.009   51.851   52.109
 xc_vxc_pw_create                   201  9.0    2.387    2.789   51.843   52.101
 potential_pw2rs                    201 10.0    0.106    0.113   44.563   44.605
 xc_rho_set_and_dset_create         201 10.0    2.817    3.255   37.733   39.746
 x_to_yz                           1206 13.2   23.709   24.034   30.377   30.674
 xc_functional_eval                 201 11.0    0.003    0.004   23.937   25.917
 pbe_lda_eval                       201 12.0   23.934   25.913   23.934   25.913
 -------------------------------------------------------------------------------

 The number of warnings for this run is : 6
 
 -------------------------------------------------------------------------------
  **** **** ******  **  PROGRAM ENDED AT                 2025-06-15 00:38:53.226
 ***** ** ***  *** **   PROGRAM RAN ON                                sebnode123
 **    ****   ******    PROGRAM RAN BY                                    luehrs
 ***** **    ** ** **   PROGRAM PROCESS ID                                569292
  **** **  *******  **  PROGRAM STOPPED IN /home/luehrs/PhD/Sodium_batteries/Sod
                                           ium-graphene-curvature/Sinus_surface/
                                           Sinus_6
