     128
 i =       72, E =      -662.5833967723
  C         8.6233676829       14.9836848472        0.0020352704
  C         9.8515512095       15.6682511859        0.0014474820
  C        11.0788392163       14.9837409021        0.0010855725
  C        12.3073180737       15.6682087300        0.0001514178
  C        13.5351507147       14.9840961354        0.0002825897
  C        14.7629943559       15.6689582680       -0.0007075786
  C        15.9916105694       14.9852459175        0.0000086041
  C        17.2193231196       15.6700328989       -0.0001679691
  C        18.4475516839       14.9859077508        0.0005370410
  C        19.6760663524       15.6700883964        0.0013646926
  C        20.9033646251       14.9852012395        0.0016076527
  C        22.1323142815       15.6689593994        0.0020422136
  C        23.3597039666       14.9840720950        0.0021999797
  C        24.5879121159       15.6681751739        0.0022823857
  C        25.8159565251       14.9836364393        0.0022944476
  C        27.0435057956       15.6682382875        0.0023634269
  C        25.8151726560       13.5374730331        0.0025231706
  C        23.3588872701       13.5379335913        0.0025256542
  C        20.9026536911       13.5391159966        0.0015196862
  C        18.4468091850       13.5398576883        0.0006176859
  C        15.9909403797       13.5391744605        0.0008930386
  C        14.7618639041       12.8289082277        0.0014019942
  C        13.5346225666       13.5379668353        0.0013670605
  C        12.3062658747       12.8279965973        0.0015118193
  C        11.0782897073       13.5375770397        0.0015510927
  C         9.8503455479       12.8275001720        0.0013029121
  C         8.6227219739       13.5376268654        0.0017640040
  C         7.3937865487       12.8274213695        0.0018773555
  C        24.5859440050       12.8278970798        0.0026081372
  C        22.1304204626       12.8288624871        0.0021523953
  C        19.6743276992       12.8297159255        0.0011173882
  C        17.2179201203       12.8297238482        0.0009974627
  C        24.5830586927       11.3937465538        0.0014151286
  C        23.3542862017       10.6817896464        0.0017301584
  C        22.1273615104       11.3946663311        0.0026895683
  C        20.8977584279       10.6825176681        0.0029973122
  C        19.6713170964       11.3950399120        0.0019908323
  C        18.4423096544       10.6826174028        0.0025073862
  C        17.2152140886       11.3950865185        0.0016748062
  C        15.9868269370       10.6826088499        0.0024002735
  C        14.7591589845       11.3947444786        0.0020117173
  C        13.5302335694       10.6819005137        0.0006275779
  C        12.3034252643       11.3938361424        0.0003805028
  C        11.0735043191       10.6804745466       -0.0039285445
  C         9.8476100573       11.3927242520       -0.0019508031
  C         8.6182894556       10.6790597511       -0.0065164952
  C         7.3908209448       11.3926784835       -0.0014453897
  C         6.1630123733       10.6804365544       -0.0029989157
  C         6.1606329054        9.2496307963       -0.0163226860
  C         7.3868064889        8.5356744039       -0.0365039389
  C         8.6158364652        9.2500159247       -0.0253639662
  C         9.8433561377        8.5357447211       -0.0373840711
  C        11.0710060918        9.2497238281       -0.0174830547
  C        12.2993095409        8.5376385338       -0.0179633348
  C        13.5280458248        9.2509592606       -0.0037449933
  C        14.7550779051        8.5393184273       -0.0007560137
  C        15.9845955735        9.2520673297        0.0032584969
  C        17.2110140062        8.5396035714        0.0051002622
  C        18.4399677332        9.2522584642        0.0046276297
  C        19.6673356600        8.5395069744        0.0056566158
  C        20.8952498997        9.2519811933        0.0042229423
  C        22.1232607539        8.5391644123        0.0004861403
  C        23.3516947736        9.2508177682       -0.0021715548
  C        22.1217039919        7.1095175535       -0.0054530924
  C        20.8914560642        6.3962383240        0.0013909816
  C        19.6656253401        7.1088347251        0.0070721356
  C        18.4365607092        6.3957995540        0.0086681364
  C        17.2091604546        7.1089427929        0.0066610924
  C        15.9816988134        6.3964568810        0.0010809126
  C        14.7531214215        7.1096876405       -0.0064601083
  C        13.5262199658        6.3977209888       -0.0304551483
  C        12.2972591145        7.1086412533       -0.0408944631
  C        11.0687782161        6.3958992782       -0.0808926361
  C         9.8419067329        7.1058976928       -0.0766841185
  C         8.6125915037        6.3891342136       -0.1069915722
  C         7.3848164223        7.1058535809       -0.0761139557
  C         6.1564108246        6.3957564108       -0.0802084447
  C         4.9295432089        7.1084727435       -0.0395218914
  C         4.9309558207        8.5374750939       -0.0162931432
  C         3.6989200815        6.3975025276       -0.0298027861
  C         3.6948485922        4.9647155278       -0.0551942574
  C         4.9227253527        4.2548484664       -0.1116408452
  C         6.1529202082        4.9619177826       -0.1272487302
  C         7.3783946904        4.2477534093       -0.1889838246
  C         8.6101011075        4.9602378360       -0.1687597781
  C         9.8403847858        4.2476612300       -0.1882884478
  C        11.0671143934        4.9619893267       -0.1263761289
  C        12.2958249064        4.2549114181       -0.1085786971
  C        13.5249713133        4.9648613238       -0.0531897092
  C        14.7486646004        4.2532990988       -0.0303143314
  C        15.9793968636        4.9639147413       -0.0032202256
  C        17.2045125606        4.2528961591        0.0059115568
  C        18.4337236080        4.9636111963        0.0095239374
  C        19.6614443215        4.2528572434        0.0047659176
  C        20.8881764513        4.9637345858       -0.0043104043
  C        19.6595197183        2.8062072644        0.0010475036
  C        18.4317705110        2.1211478353        0.0068375246
  C        17.2044795179        2.8062200043        0.0031587840
  C        15.9744550124        2.1215497850       -0.0181483713
  C        14.7512902695        2.8082173252       -0.0469487969
  C        13.5175426113        2.1243609380       -0.1086987013
  C        12.3041135565        2.8148319916       -0.1511838323
  C        11.0631037927        2.1310149607       -0.2425763025
  C         9.8661053297        2.8134784555       -0.2642643666
  C         8.6083437678        2.0323505558       -0.3599830457
  C         6.1539136154        2.1315742517       -0.2488385329
  C         7.3517052405        2.8138829515       -0.2669491935
  C         4.9129078877        2.8149032084       -0.1577740982
  C         3.6986414769        2.1245522804       -0.1173505401
  C         2.4650951576        2.8081335179       -0.0536247307
  C         2.4695934492        4.2531741310       -0.0336643072
  C         1.2412263007        2.1216904930       -0.0236498676
  H        27.0437618225       16.7569820071        0.0028569719
  H        24.5883151434       16.7569721874        0.0020207299
  H        22.1330964292       16.7577379849        0.0024051358
  H        17.2191256424       16.7587747784       -0.0008944414
  H        14.7626285901       16.7577537385       -0.0022608391
  H        12.3073452110       16.7570292580       -0.0006535687
  H         9.8517903088       16.7569854127        0.0018752659
  H         1.2422631785        1.0330273289       -0.0334009200
  H         3.7034560948        1.0360560022       -0.1449745098
  H         6.1802479250        1.0439037411       -0.3047868930
  O         8.6063624679        0.8006928124       -0.5023418414
  H        11.0364575817        1.0432234866       -0.2964890907
  H        13.5122312620        1.0358041955       -0.1338969834
  H        15.9730096185        1.0328109093       -0.0262279371
  H        18.4316534602        1.0324140559        0.0032984516
  H        19.6765138099       16.7588183462        0.0024847587
