 DBCSR| CPU Multiplication driver                                           BLAS (U)
 DBCSR| Multrec recursion limit                                              512 (U)
 DBCSR| Multiplication stack size                                           1000 (D)
 DBCSR| Maximum elements for images                                    UNLIMITED (U)
 DBCSR| Multiplicative factor virtual images                                   1 (U)
 DBCSR| Use multiplication densification                                       T (D)
 DBCSR| Multiplication size stacks                                             3 (U)
 DBCSR| Use memory pool for CPU allocation                                     F (U)
 DBCSR| Number of 3D layers                                               SINGLE (U)
 DBCSR| Use MPI memory allocation                                              F (U)
 DBCSR| Use RMA algorithm                                                      F (U)
 DBCSR| Use Communication thread                                               T (U)
 DBCSR| Communication thread load                                             87 (D)
 DBCSR| MPI: My process id                                                     0
 DBCSR| MPI: Number of processes                                              16
 DBCSR| OMP: Current number of threads                                         1
 DBCSR| OMP: Max number of threads                                             1
 DBCSR| Split modifier for TAS multiplication algorithm                  1.0E+00 (U)


  **** **** ******  **  PROGRAM STARTED AT               2025-09-13 20:43:03.719
 ***** ** ***  *** **   PROGRAM STARTED ON                            sebnode129
 **    ****   ******    PROGRAM STARTED BY                                luehrs
 ***** **    ** ** **   PROGRAM PROCESS ID                               2285515
  **** **  *******  **  PROGRAM STARTED IN /home/luehrs/PhD/Sodium_batteries/Sod
                                           ium-graphene-functional_groups/Carbon
                                           yl/Ketone-hydrogenated_edges_zig-zag

 CP2K| version string:                                       CP2K version 2023.1
 CP2K| source code revision number:                                  git:b888bd8
 CP2K| cp2kflags: omp libint fftw3 libxc elpa parallel scalapack spglib         
 CP2K| is freely available from                            https://www.cp2k.org/
 CP2K| Program compiled at                          Tue Jan 10 19:52:03 UTC 2023
 CP2K| Program compiled on                                            x86-ubc-01
 CP2K| Program compiled for                                Linux-x86_64-gfortran
 CP2K| Data directory path                                       /usr/share/cp2k
 CP2K| Input file name                                         input.zig-zag.inp

 GLOBAL| Force Environment number                                              1
 GLOBAL| Basis set file name                                      ./BASIS_MOLOPT
 GLOBAL| Potential file name                                    ./GTH_POTENTIALS
 GLOBAL| MM Potential file name                                     MM_POTENTIAL
 GLOBAL| Coordinate file name                         ketone_sodium2_relaxed.xyz
 GLOBAL| Method name                                                        CP2K
 GLOBAL| Project name                          ketone_sodium2_BSSE_PBE_UKS_FALSE
 GLOBAL| Run type                                                           BSSE
 GLOBAL| FFT library                                                       FFTW3
 GLOBAL| Diagonalization library                                            ELPA
 GLOBAL| DGEMM library                                                      BLAS
 GLOBAL| Minimum number of eigenvectors for ELPA usage                        16
 GLOBAL| Orthonormality check for eigenvectors                          DISABLED
 GLOBAL| Matrix multiplication library                                 ScaLAPACK
 GLOBAL| All-to-all communication in single precision                          F
 GLOBAL| FFTs using library dependent lengths                                  F
 GLOBAL| Grid backend                                                       AUTO
 GLOBAL| Global print level                                                  LOW
 GLOBAL| MPI I/O enabled                                                       T
 GLOBAL| Total number of message passing processes                            16
 GLOBAL| Number of threads for this process                                    1
 GLOBAL| This output is from process                                           0
 GLOBAL| Stack size for threads created by OpenMP (OMP_STACKSIZE)        default
 GLOBAL| CPU model name                          AMD EPYC 7513 32-Core Processor

 MEMORY| system memory details [Kb]
 MEMORY|                        rank 0           min           max       average
 MEMORY| MemTotal            131832300     131832300     131832300     131832300
 MEMORY| MemFree              84632136      84632136      84632136      84632136
 MEMORY| Buffers                192148        192148        192148        192148
 MEMORY| Cached                 609996        609996        610000        609999
 MEMORY| Slab                   794980        794980        794980        794980
 MEMORY| SReclaimable           139372        139372        139372        139372
 MEMORY| MemLikelyFree        85573652      85573652      85573656      85573655


 GENERATE|  Preliminary Number of Bonds generated:                             0
 GENERATE|  Achieved consistency in connectivity generation.

 *******************************************************************************
 *******************************************************************************
 **                                                                           **
 **     #####                         ##              ##                      **
 **    ##   ##            ##          ##              ##                      **
 **   ##     ##                       ##            ######                    **
 **   ##     ##  ##   ##  ##   #####  ##  ##   ####   ##    #####    #####    **
 **   ##     ##  ##   ##  ##  ##      ## ##   ##      ##   ##   ##  ##   ##   **
 **   ##  ## ##  ##   ##  ##  ##      ####     ###    ##   ######   ######    **
 **    ##  ###   ##   ##  ##  ##      ## ##      ##   ##   ##       ##        **
 **     #######   #####   ##   #####  ##  ##  ####    ##    #####   ##        **
 **           ##                                                    ##        **
 **                                                                           **
 **                                                ... make the atoms dance   **
 **                                                                           **
 **            Copyright (C) by CP2K developers group (2000-2022)             **
 **                      J. Chem. Phys. 152, 194103 (2020)                    **
 **                                                                           **
 *******************************************************************************


 TOTAL NUMBERS AND MAXIMUM NUMBERS

  Total number of            - Atomic kinds:                                   4
                             - Atoms:                                        129
                             - Shell sets:                                   129
                             - Shells:                                       615
                             - Primitive Cartesian functions:                647
                             - Cartesian basis functions:                   1666
                             - Spherical basis functions:                   1553

  Maximum angular momentum of- Orbital basis functions:                        2
                             - Local part of the GTH pseudopotential:          2
                             - Non-local part of the GTH pseudopotential:      1


 SCF PARAMETERS         Density guess:                                    ATOMIC
                        --------------------------------------------------------
                        max_scf:                                             100
                        max_scf_history:                                       0
                        max_diis:                                              4
                        --------------------------------------------------------
                        eps_scf:                                        3.00E-07
                        eps_scf_history:                                0.00E+00
                        eps_diis:                                       1.00E-01
                        eps_eigval:                                     1.00E-05
                        --------------------------------------------------------
                        level_shift [a.u.]:                             0.000000
                        added MOs                                       100    0
                        --------------------------------------------------------
                        Mixing method:                            BROYDEN_MIXING
                                                charge density mixing in g-space
                        --------------------------------------------------------
                        Smear method:                                FERMI_DIRAC
                        Electronic temperature [K]:                        300.0
                        Electronic temperature [a.u.]:                  9.50E-04
                        Accuracy threshold:                             1.00E-10
                        --------------------------------------------------------
                        Outer loop SCF in use 
                        No variables optimised in outer loop
                        eps_scf                                         1.00E-06
                        max_scf                                               30
                        DIIS optimization
                        DIIS buffer length                                     3
                        step_size                                       5.00E-01

 -------------------------------------------------------------------------------
 -                                                                             -
 -  BSSE CALCULATION         FRAGMENT CONF: 10        FRAGMENT SUBCONF: 10     -
 -                           CHARGE =     0           MULTIPLICITY =     0     -
 -                                                                             -
 -                 ATOM INDEX                              ATOM NAME           -
 -                 ----------                              ---------           -
 -                      1                                   C                  -
 -                      2                                   C                  -
 -                      3                                   C                  -
 -                      4                                   C                  -
 -                      5                                   C                  -
 -                      6                                   C                  -
 -                      7                                   C                  -
 -                      8                                   C                  -
 -                      9                                   C                  -
 -                     10                                   C                  -
 -                     11                                   C                  -
 -                     12                                   C                  -
 -                     13                                   C                  -
 -                     14                                   C                  -
 -                     15                                   C                  -
 -                     16                                   C                  -
 -                     17                                   C                  -
 -                     18                                   C                  -
 -                     19                                   C                  -
 -                     20                                   C                  -
 -                     21                                   C                  -
 -                     22                                   C                  -
 -                     23                                   C                  -
 -                     24                                   C                  -
 -                     25                                   C                  -
 -                     26                                   C                  -
 -                     27                                   C                  -
 -                     28                                   C                  -
 -                     29                                   C                  -
 -                     30                                   C                  -
 -                     31                                   C                  -
 -                     32                                   C                  -
 -                     33                                   C                  -
 -                     34                                   C                  -
 -                     35                                   C                  -
 -                     36                                   C                  -
 -                     37                                   C                  -
 -                     38                                   C                  -
 -                     39                                   C                  -
 -                     40                                   C                  -
 -                     41                                   C                  -
 -                     42                                   C                  -
 -                     43                                   C                  -
 -                     44                                   C                  -
 -                     45                                   C                  -
 -                     46                                   C                  -
 -                     47                                   C                  -
 -                     48                                   C                  -
 -                     49                                   C                  -
 -                     50                                   C                  -
 -                     51                                   C                  -
 -                     52                                   C                  -
 -                     53                                   C                  -
 -                     54                                   C                  -
 -                     55                                   C                  -
 -                     56                                   C                  -
 -                     57                                   C                  -
 -                     58                                   C                  -
 -                     59                                   C                  -
 -                     60                                   C                  -
 -                     61                                   C                  -
 -                     62                                   C                  -
 -                     63                                   C                  -
 -                     64                                   C                  -
 -                     65                                   C                  -
 -                     66                                   C                  -
 -                     67                                   C                  -
 -                     68                                   C                  -
 -                     69                                   C                  -
 -                     70                                   C                  -
 -                     71                                   C                  -
 -                     72                                   C                  -
 -                     73                                   C                  -
 -                     74                                   C                  -
 -                     75                                   C                  -
 -                     76                                   C                  -
 -                     77                                   C                  -
 -                     78                                   C                  -
 -                     79                                   C                  -
 -                     80                                   C                  -
 -                     81                                   C                  -
 -                     82                                   C                  -
 -                     83                                   C                  -
 -                     84                                   C                  -
 -                     85                                   C                  -
 -                     86                                   C                  -
 -                     87                                   C                  -
 -                     88                                   C                  -
 -                     89                                   C                  -
 -                     90                                   C                  -
 -                     91                                   C                  -
 -                     92                                   C                  -
 -                     93                                   C                  -
 -                     94                                   C                  -
 -                     95                                   C                  -
 -                     96                                   C                  -
 -                     97                                   C                  -
 -                     98                                   C                  -
 -                     99                                   C                  -
 -                    100                                   C                  -
 -                    101                                   C                  -
 -                    102                                   C                  -
 -                    103                                   C                  -
 -                    104                                   C                  -
 -                    105                                   C                  -
 -                    106                                   C                  -
 -                    107                                   C                  -
 -                    108                                   C                  -
 -                    109                                   C                  -
 -                    110                                   C                  -
 -                    111                                   C                  -
 -                    112                                   C                  -
 -                    113                                   H                  -
 -                    114                                   H                  -
 -                    115                                   H                  -
 -                    116                                   H                  -
 -                    117                                   H                  -
 -                    118                                   H                  -
 -                    119                                   H                  -
 -                    120                                   H                  -
 -                    121                                   H                  -
 -                    122                                   Na                 -
 -                    123                                   O                  -
 -                    124                                   H                  -
 -                    125                                   H                  -
 -                    126                                   H                  -
 -                    127                                   H                  -
 -                    128                                   H                  -
 -------------------------------------------------------------------------------

 *******************************************************************************
 *******************************************************************************
 **                                                                           **
 **     #####                         ##              ##                      **
 **    ##   ##            ##          ##              ##                      **
 **   ##     ##                       ##            ######                    **
 **   ##     ##  ##   ##  ##   #####  ##  ##   ####   ##    #####    #####    **
 **   ##     ##  ##   ##  ##  ##      ## ##   ##      ##   ##   ##  ##   ##   **
 **   ##  ## ##  ##   ##  ##  ##      ####     ###    ##   ######   ######    **
 **    ##  ###   ##   ##  ##  ##      ## ##      ##   ##   ##       ##        **
 **     #######   #####   ##   #####  ##  ##  ####    ##    #####   ##        **
 **           ##                                                    ##        **
 **                                                                           **
 **                                                ... make the atoms dance   **
 **                                                                           **
 **            Copyright (C) by CP2K developers group (2000-2022)             **
 **                      J. Chem. Phys. 152, 194103 (2020)                    **
 **                                                                           **
 *******************************************************************************


 TOTAL NUMBERS AND MAXIMUM NUMBERS

  Total number of            - Atomic kinds:                                   4
                             - Atoms:                                        128
                             - Shell sets:                                   128
                             - Shells:                                       612
                             - Primitive Cartesian functions:                642
                             - Cartesian basis functions:                   1661
                             - Spherical basis functions:                   1548

  Maximum angular momentum of- Orbital basis functions:                        2
                             - Local part of the GTH pseudopotential:          2
                             - Non-local part of the GTH pseudopotential:      1


 SCF PARAMETERS         Density guess:                                    ATOMIC
                        --------------------------------------------------------
                        max_scf:                                             100
                        max_scf_history:                                       0
                        max_diis:                                              4
                        --------------------------------------------------------
                        eps_scf:                                        3.00E-07
                        eps_scf_history:                                0.00E+00
                        eps_diis:                                       1.00E-01
                        eps_eigval:                                     1.00E-05
                        --------------------------------------------------------
                        level_shift [a.u.]:                             0.000000
                        added MOs                                       100    0
                        --------------------------------------------------------
                        Mixing method:                            BROYDEN_MIXING
                                                charge density mixing in g-space
                        --------------------------------------------------------
                        Smear method:                                FERMI_DIRAC
                        Electronic temperature [K]:                        300.0
                        Electronic temperature [a.u.]:                  9.50E-04
                        Accuracy threshold:                             1.00E-10
                        --------------------------------------------------------
                        Outer loop SCF in use 
                        No variables optimised in outer loop
                        eps_scf                                         1.00E-06
                        max_scf                                               30
                        DIIS optimization
                        DIIS buffer length                                     3
                        step_size                                       5.00E-01

 Number of electrons:                                                        477
 Number of occupied orbitals:                                                239
 Number of molecular orbitals:                                               339

 Number of orbital functions:                                               1548
 Number of independent orbital functions:                                   1548

 Extrapolation method: initial_guess


 SCF WAVEFUNCTION OPTIMIZATION

  Step     Update method      Time    Convergence         Total energy    Change
  ------------------------------------------------------------------------------
     1 NoMix/Diag. 0.10E+00   18.4     0.97548815      -702.5760617234 -7.03E+02
     2 Broy./Diag. 0.10E+00   20.3     0.05686833      -676.2408924981  2.63E+01
     3 Broy./Diag. 0.10E+00   18.4     0.61532997      -694.1209889598 -1.79E+01
     4 Broy./Diag. 0.10E+00   20.4     0.38653337      -703.8909270816 -9.77E+00
     5 Broy./Diag. 0.10E+00   22.6     0.08191137      -704.3676377261 -4.77E-01
     6 Broy./Diag. 0.10E+00   19.7     0.20278141      -706.5062698282 -2.14E+00
     7 Broy./Diag. 0.10E+00   20.5     0.25042525      -707.4213316732 -9.15E-01
     8 Broy./Diag. 0.10E+00   19.0     0.03691799      -707.5346632953 -1.13E-01
     9 Broy./Diag. 0.10E+00   19.5     0.03247029      -707.8682155307 -3.34E-01
    10 Broy./Diag. 0.10E+00   18.1     0.01522189      -708.2780154273 -4.10E-01
    11 Broy./Diag. 0.10E+00   19.6     0.55588682      -708.4454366236 -1.67E-01
    12 Broy./Diag. 0.10E+00   20.1     0.22466173      -708.5934003653 -1.48E-01
    13 Broy./Diag. 0.10E+00   20.6     0.09397326      -708.6410417222 -4.76E-02
    14 Broy./Diag. 0.10E+00   19.5     0.12612131      -708.7259821662 -8.49E-02
    15 Broy./Diag. 0.10E+00   22.9     0.03016146      -708.8216297779 -9.56E-02
    16 Broy./Diag. 0.10E+00   19.5     0.02687664      -708.9188335207 -9.72E-02
    17 Broy./Diag. 0.10E+00   19.9     0.00806256      -709.0260543597 -1.07E-01
    18 Broy./Diag. 0.10E+00   20.9     0.02327501      -709.0837999911 -5.77E-02
    19 Broy./Diag. 0.10E+00   18.9     0.08944864      -709.1410871731 -5.73E-02
    20 Broy./Diag. 0.10E+00   22.6     0.00577851      -709.1824641220 -4.14E-02
    21 Broy./Diag. 0.10E+00   17.6     0.00558723      -709.2236271631 -4.12E-02
    22 Broy./Diag. 0.10E+00   18.2     0.05304017      -709.2174995357  6.13E-03
    23 Broy./Diag. 0.10E+00   18.9     0.00131024      -709.1760932269  4.14E-02
    24 Broy./Diag. 0.10E+00   18.7     0.00283861      -709.1152776444  6.08E-02
    25 Broy./Diag. 0.10E+00   18.4     0.01569746      -709.0902387241  2.50E-02
    26 Broy./Diag. 0.10E+00   22.5     0.00052148      -709.0879733705  2.27E-03
    27 Broy./Diag. 0.10E+00   20.6     0.00284288      -709.0873544095  6.19E-04
    28 Broy./Diag. 0.10E+00   17.2     0.00065384      -709.0870175081  3.37E-04
    29 Broy./Diag. 0.10E+00   19.4     0.00146666      -709.1139729851 -2.70E-02
    30 Broy./Diag. 0.10E+00   23.2     0.00032787      -709.1306697405 -1.67E-02
    31 Broy./Diag. 0.10E+00   20.4     0.00078672      -709.1309054641 -2.36E-04
    32 Broy./Diag. 0.10E+00   20.4     0.00016901      -709.1324964988 -1.59E-03
    33 Broy./Diag. 0.10E+00   21.2     0.00047412      -709.1301582607  2.34E-03
    34 Broy./Diag. 0.10E+00   17.9     0.00017751      -709.1332827918 -3.12E-03
    35 Broy./Diag. 0.10E+00   21.4     0.00027150      -709.1320838046  1.20E-03
    36 Broy./Diag. 0.10E+00   19.0     0.00010636      -709.1305084706  1.58E-03
    37 Broy./Diag. 0.10E+00   20.0     0.00045351      -709.1305514248 -4.30E-05
    38 Broy./Diag. 0.10E+00   20.4     0.00024926      -709.1316800310 -1.13E-03
    39 Broy./Diag. 0.10E+00   18.8     0.00017635      -709.1320463633 -3.66E-04
    40 Broy./Diag. 0.10E+00   19.2     0.00008228      -709.1328234148 -7.77E-04
    41 Broy./Diag. 0.10E+00   21.4     0.00009101      -709.1340987128 -1.28E-03
    42 Broy./Diag. 0.10E+00   18.7     0.00010757      -709.1342751781 -1.76E-04
    43 Broy./Diag. 0.10E+00   20.4     0.00014163      -709.1342883759 -1.32E-05
    44 Broy./Diag. 0.10E+00   19.2     0.00005480      -709.1340220338  2.66E-04
    45 Broy./Diag. 0.10E+00   20.1     0.00004158      -709.1336727206  3.49E-04
    46 Broy./Diag. 0.10E+00   19.1     0.00001938      -709.1332877510  3.85E-04
    47 Broy./Diag. 0.10E+00   18.9     0.00007283      -709.1332390325  4.87E-05
    48 Broy./Diag. 0.10E+00   22.9     0.00001523      -709.1331272343  1.12E-04
    49 Broy./Diag. 0.10E+00   20.3     0.00001005      -709.1330490025  7.82E-05
    50 Broy./Diag. 0.10E+00   19.5     0.00000508      -709.1330554102 -6.41E-06
    51 Broy./Diag. 0.10E+00   21.3     0.00001521      -709.1331632592 -1.08E-04
    52 Broy./Diag. 0.10E+00   21.1     0.00000792      -709.1332760522 -1.13E-04
    53 Broy./Diag. 0.10E+00   23.5     0.00001542      -709.1332686416  7.41E-06
    54 Broy./Diag. 0.10E+00   19.9     0.00000320      -709.1333067757 -3.81E-05
    55 Broy./Diag. 0.10E+00   21.7     0.00000809      -709.1333264009 -1.96E-05
    56 Broy./Diag. 0.10E+00   21.7     0.00000220      -709.1333187426  7.66E-06
    57 Broy./Diag. 0.10E+00   21.7     0.00000410      -709.1333085842  1.02E-05
    58 Broy./Diag. 0.10E+00   19.3     0.00000090      -709.1333077149  8.69E-07
    59 Broy./Diag. 0.10E+00   19.8     0.00000189      -709.1333246745 -1.70E-05
    60 Broy./Diag. 0.10E+00   20.8     0.00000215      -709.1333233892  1.29E-06
    61 Broy./Diag. 0.10E+00   19.9     0.00000057      -709.1333025086  2.09E-05
    62 Broy./Diag. 0.10E+00   21.0     0.00000264      -709.1332949669  7.54E-06
    63 Broy./Diag. 0.10E+00   17.5     0.00000070      -709.1333005124 -5.55E-06
    64 Broy./Diag. 0.10E+00   19.2     0.00000097      -709.1333081796 -7.67E-06
    65 Broy./Diag. 0.10E+00   19.0     0.00000058      -709.1333118242 -3.64E-06
    66 Broy./Diag. 0.10E+00   20.0     0.00000033      -709.1333142650 -2.44E-06
    67 Broy./Diag. 0.10E+00   19.5     0.00000070      -709.1333185678 -4.30E-06
    68 Broy./Diag. 0.10E+00   21.7     0.00000032      -709.1333210655 -2.50E-06
    69 Broy./Diag. 0.10E+00   19.3     0.00000071      -709.1333211314 -6.59E-08
    70 Broy./Diag. 0.10E+00   19.7     0.00000024      -709.1333206528  4.79E-07

  *** SCF run converged in    70 steps ***


  Electronic density on regular grids:       -477.0001245018       -0.0001245018
  Core density on regular grids:              476.9999999997       -0.0000000003
  Total charge density on r-space grids:       -0.0001245021
  Total charge density g-space grids:          -0.0001245021

  Overlap energy of the core charge distribution:               0.00002406482590
  Self energy of the core charge distribution:              -1651.40022049530035
  Core Hamiltonian energy:                                    516.59094268036347
  Hartree energy:                                             637.03231033689781
  Exchange-correlation energy:                               -211.22121952058725
  Dispersion energy:                                           -0.13301470213554
  Electronic entropic energy:                                  -0.00214301698955
  Fermi energy:                                                -0.11942235932419

  Total energy:                                              -709.13332065276518

  outer SCF iter =    1 RMS gradient =   0.24E-06 energy =       -709.1333206528
  outer SCF loop converged in   1 iterations or   70 steps


 *** WARNING in qs_loc_utils.F:1500 :: User requested the calculation of ***
 *** the localized wavefunction but the section LOCALIZE was not         ***
 *** specified. Localization will not be performed!                      ***


 -------------------------------------------------------------------------------
 -                                                                             -
 -  BSSE CALCULATION         FRAGMENT CONF: 01        FRAGMENT SUBCONF: 01     -
 -                           CHARGE =     0           MULTIPLICITY =     0     -
 -                                                                             -
 -                 ATOM INDEX                              ATOM NAME           -
 -                 ----------                              ---------           -
 -                    129                                   H                  -
 -------------------------------------------------------------------------------

 *******************************************************************************
 *******************************************************************************
 **                                                                           **
 **     #####                         ##              ##                      **
 **    ##   ##            ##          ##              ##                      **
 **   ##     ##                       ##            ######                    **
 **   ##     ##  ##   ##  ##   #####  ##  ##   ####   ##    #####    #####    **
 **   ##     ##  ##   ##  ##  ##      ## ##   ##      ##   ##   ##  ##   ##   **
 **   ##  ## ##  ##   ##  ##  ##      ####     ###    ##   ######   ######    **
 **    ##  ###   ##   ##  ##  ##      ## ##      ##   ##   ##       ##        **
 **     #######   #####   ##   #####  ##  ##  ####    ##    #####   ##        **
 **           ##                                                    ##        **
 **                                                                           **
 **                                                ... make the atoms dance   **
 **                                                                           **
 **            Copyright (C) by CP2K developers group (2000-2022)             **
 **                      J. Chem. Phys. 152, 194103 (2020)                    **
 **                                                                           **
 *******************************************************************************

 *** WARNING in qs_environment.F:1486 :: More added MOs requested than     ***
 *** available. The full set of unoccupied MOs will be used. Use           ***
 *** 'ADDED_MOS -1' to always use all available MOs and to get rid of this ***
 *** warning.                                                              ***



 TOTAL NUMBERS AND MAXIMUM NUMBERS

  Total number of            - Atomic kinds:                                   1
                             - Atoms:                                          1
                             - Shell sets:                                     1
                             - Shells:                                         3
                             - Primitive Cartesian functions:                  5
                             - Cartesian basis functions:                      5
                             - Spherical basis functions:                      5

  Maximum angular momentum of- Orbital basis functions:                        1
                             - Local part of the GTH pseudopotential:          2


 SCF PARAMETERS         Density guess:                                    ATOMIC
                        --------------------------------------------------------
                        max_scf:                                             100
                        max_scf_history:                                       0
                        max_diis:                                              4
                        --------------------------------------------------------
                        eps_scf:                                        3.00E-07
                        eps_scf_history:                                0.00E+00
                        eps_diis:                                       1.00E-01
                        eps_eigval:                                     1.00E-05
                        --------------------------------------------------------
                        level_shift [a.u.]:                             0.000000
                        added MOs                                         4    0
                        --------------------------------------------------------
                        Mixing method:                            BROYDEN_MIXING
                                                charge density mixing in g-space
                        --------------------------------------------------------
                        Smear method:                                FERMI_DIRAC
                        Electronic temperature [K]:                        300.0
                        Electronic temperature [a.u.]:                  9.50E-04
                        Accuracy threshold:                             1.00E-10
                        --------------------------------------------------------
                        Outer loop SCF in use 
                        No variables optimised in outer loop
                        eps_scf                                         1.00E-06
                        max_scf                                               30
                        DIIS optimization
                        DIIS buffer length                                     3
                        step_size                                       5.00E-01

 Number of electrons:                                                          1
 Number of occupied orbitals:                                                  1
 Number of molecular orbitals:                                                 5

 Number of orbital functions:                                                  5
 Number of independent orbital functions:                                      5

 Extrapolation method: initial_guess


 SCF WAVEFUNCTION OPTIMIZATION

  Step     Update method      Time    Convergence         Total energy    Change
  ------------------------------------------------------------------------------

 *** WARNING in qs_mo_occupation.F:581 :: Fermi-Dirac smearing includes ***
 *** the first MO                                                       ***

     1 NoMix/Diag. 0.10E+00    3.8     0.00493699        -0.4072388598 -4.07E-01

 *** WARNING in qs_mo_occupation.F:581 :: Fermi-Dirac smearing includes ***
 *** the first MO                                                       ***

     2 Broy./Diag. 0.10E+00    4.3     0.00001856        -0.4064637528  7.75E-04

 *** WARNING in qs_mo_occupation.F:581 :: Fermi-Dirac smearing includes ***
 *** the first MO                                                       ***

     3 Broy./Diag. 0.10E+00    5.6     0.00019548        -0.4089013555 -2.44E-03

 *** WARNING in qs_mo_occupation.F:581 :: Fermi-Dirac smearing includes ***
 *** the first MO                                                       ***

     4 Broy./Diag. 0.10E+00    5.7     0.00000195        -0.4088273534  7.40E-05

 *** WARNING in qs_mo_occupation.F:581 :: Fermi-Dirac smearing includes ***
 *** the first MO                                                       ***

     5 Broy./Diag. 0.10E+00    5.6     0.00000304        -0.4088200989  7.25E-06

 *** WARNING in qs_mo_occupation.F:581 :: Fermi-Dirac smearing includes ***
 *** the first MO                                                       ***

     6 Broy./Diag. 0.10E+00    5.8     0.00000036        -0.4088115878  8.51E-06

 *** WARNING in qs_mo_occupation.F:581 :: Fermi-Dirac smearing includes ***
 *** the first MO                                                       ***

     7 Broy./Diag. 0.10E+00    3.9     0.00000581        -0.4087116796  9.99E-05

 *** WARNING in qs_mo_occupation.F:581 :: Fermi-Dirac smearing includes ***
 *** the first MO                                                       ***

     8 Broy./Diag. 0.10E+00    4.3     0.00000090        -0.4086952175  1.65E-05

 *** WARNING in qs_mo_occupation.F:581 :: Fermi-Dirac smearing includes ***
 *** the first MO                                                       ***

     9 Broy./Diag. 0.10E+00    5.8     0.00000221        -0.4086709128  2.43E-05

 *** WARNING in qs_mo_occupation.F:581 :: Fermi-Dirac smearing includes ***
 *** the first MO                                                       ***

    10 Broy./Diag. 0.10E+00    6.9     0.00000086        -0.4086598167  1.11E-05

 *** WARNING in qs_mo_occupation.F:581 :: Fermi-Dirac smearing includes ***
 *** the first MO                                                       ***

    11 Broy./Diag. 0.10E+00    4.1     0.00000015        -0.4086571260  2.69E-06

  *** SCF run converged in    11 steps ***


  Electronic density on regular grids:         -1.0000000002       -0.0000000002
  Core density on regular grids:                1.0000000000        0.0000000000
  Total charge density on r-space grids:       -0.0000000002
  Total charge density g-space grids:          -0.0000000002

  Overlap energy of the core charge distribution:               0.00000000000000
  Self energy of the core charge distribution:                 -1.41047395886939
  Core Hamiltonian energy:                                      0.68877723588254
  Hartree energy:                                               0.64955558721662
  Exchange-correlation energy:                                 -0.33519894334136
  Dispersion energy:                                           -0.00000000539306
  Electronic entropic energy:                                  -0.00131704147593
  Fermi energy:                                                -0.10540560353286

  Total energy:                                                -0.40865712598058

  outer SCF iter =    1 RMS gradient =   0.15E-06 energy =         -0.4086571260
  outer SCF loop converged in   1 iterations or   11 steps


 *** WARNING in qs_loc_utils.F:1500 :: User requested the calculation of ***
 *** the localized wavefunction but the section LOCALIZE was not         ***
 *** specified. Localization will not be performed!                      ***


 -------------------------------------------------------------------------------
 -                                                                             -
 -  BSSE CALCULATION         FRAGMENT CONF: 11        FRAGMENT SUBCONF: 10     -
 -                           CHARGE =     0           MULTIPLICITY =     0     -
 -                                                                             -
 -                 ATOM INDEX                              ATOM NAME           -
 -                 ----------                              ---------           -
 -                      1                                   C                  -
 -                      2                                   C                  -
 -                      3                                   C                  -
 -                      4                                   C                  -
 -                      5                                   C                  -
 -                      6                                   C                  -
 -                      7                                   C                  -
 -                      8                                   C                  -
 -                      9                                   C                  -
 -                     10                                   C                  -
 -                     11                                   C                  -
 -                     12                                   C                  -
 -                     13                                   C                  -
 -                     14                                   C                  -
 -                     15                                   C                  -
 -                     16                                   C                  -
 -                     17                                   C                  -
 -                     18                                   C                  -
 -                     19                                   C                  -
 -                     20                                   C                  -
 -                     21                                   C                  -
 -                     22                                   C                  -
 -                     23                                   C                  -
 -                     24                                   C                  -
 -                     25                                   C                  -
 -                     26                                   C                  -
 -                     27                                   C                  -
 -                     28                                   C                  -
 -                     29                                   C                  -
 -                     30                                   C                  -
 -                     31                                   C                  -
 -                     32                                   C                  -
 -                     33                                   C                  -
 -                     34                                   C                  -
 -                     35                                   C                  -
 -                     36                                   C                  -
 -                     37                                   C                  -
 -                     38                                   C                  -
 -                     39                                   C                  -
 -                     40                                   C                  -
 -                     41                                   C                  -
 -                     42                                   C                  -
 -                     43                                   C                  -
 -                     44                                   C                  -
 -                     45                                   C                  -
 -                     46                                   C                  -
 -                     47                                   C                  -
 -                     48                                   C                  -
 -                     49                                   C                  -
 -                     50                                   C                  -
 -                     51                                   C                  -
 -                     52                                   C                  -
 -                     53                                   C                  -
 -                     54                                   C                  -
 -                     55                                   C                  -
 -                     56                                   C                  -
 -                     57                                   C                  -
 -                     58                                   C                  -
 -                     59                                   C                  -
 -                     60                                   C                  -
 -                     61                                   C                  -
 -                     62                                   C                  -
 -                     63                                   C                  -
 -                     64                                   C                  -
 -                     65                                   C                  -
 -                     66                                   C                  -
 -                     67                                   C                  -
 -                     68                                   C                  -
 -                     69                                   C                  -
 -                     70                                   C                  -
 -                     71                                   C                  -
 -                     72                                   C                  -
 -                     73                                   C                  -
 -                     74                                   C                  -
 -                     75                                   C                  -
 -                     76                                   C                  -
 -                     77                                   C                  -
 -                     78                                   C                  -
 -                     79                                   C                  -
 -                     80                                   C                  -
 -                     81                                   C                  -
 -                     82                                   C                  -
 -                     83                                   C                  -
 -                     84                                   C                  -
 -                     85                                   C                  -
 -                     86                                   C                  -
 -                     87                                   C                  -
 -                     88                                   C                  -
 -                     89                                   C                  -
 -                     90                                   C                  -
 -                     91                                   C                  -
 -                     92                                   C                  -
 -                     93                                   C                  -
 -                     94                                   C                  -
 -                     95                                   C                  -
 -                     96                                   C                  -
 -                     97                                   C                  -
 -                     98                                   C                  -
 -                     99                                   C                  -
 -                    100                                   C                  -
 -                    101                                   C                  -
 -                    102                                   C                  -
 -                    103                                   C                  -
 -                    104                                   C                  -
 -                    105                                   C                  -
 -                    106                                   C                  -
 -                    107                                   C                  -
 -                    108                                   C                  -
 -                    109                                   C                  -
 -                    110                                   C                  -
 -                    111                                   C                  -
 -                    112                                   C                  -
 -                    113                                   H                  -
 -                    114                                   H                  -
 -                    115                                   H                  -
 -                    116                                   H                  -
 -                    117                                   H                  -
 -                    118                                   H                  -
 -                    119                                   H                  -
 -                    120                                   H                  -
 -                    121                                   H                  -
 -                    122                                   Na                 -
 -                    123                                   O                  -
 -                    124                                   H                  -
 -                    125                                   H                  -
 -                    126                                   H                  -
 -                    127                                   H                  -
 -                    128                                   H                  -
 -                    129                                   H_ghost            -
 -------------------------------------------------------------------------------

 *******************************************************************************
 *******************************************************************************
 **                                                                           **
 **     #####                         ##              ##                      **
 **    ##   ##            ##          ##              ##                      **
 **   ##     ##                       ##            ######                    **
 **   ##     ##  ##   ##  ##   #####  ##  ##   ####   ##    #####    #####    **
 **   ##     ##  ##   ##  ##  ##      ## ##   ##      ##   ##   ##  ##   ##   **
 **   ##  ## ##  ##   ##  ##  ##      ####     ###    ##   ######   ######    **
 **    ##  ###   ##   ##  ##  ##      ## ##      ##   ##   ##       ##        **
 **     #######   #####   ##   #####  ##  ##  ####    ##    #####   ##        **
 **           ##                                                    ##        **
 **                                                                           **
 **                                                ... make the atoms dance   **
 **                                                                           **
 **            Copyright (C) by CP2K developers group (2000-2022)             **
 **                      J. Chem. Phys. 152, 194103 (2020)                    **
 **                                                                           **
 *******************************************************************************


 TOTAL NUMBERS AND MAXIMUM NUMBERS

  Total number of            - Atomic kinds:                                   5
                             - Atoms:                                        129
                             - Shell sets:                                   129
                             - Shells:                                       615
                             - Primitive Cartesian functions:                647
                             - Cartesian basis functions:                   1666
                             - Spherical basis functions:                   1553

  Maximum angular momentum of- Orbital basis functions:                        2
                             - Local part of the GTH pseudopotential:          2
                             - Non-local part of the GTH pseudopotential:      1


 SCF PARAMETERS         Density guess:                                    ATOMIC
                        --------------------------------------------------------
                        max_scf:                                             100
                        max_scf_history:                                       0
                        max_diis:                                              4
                        --------------------------------------------------------
                        eps_scf:                                        3.00E-07
                        eps_scf_history:                                0.00E+00
                        eps_diis:                                       1.00E-01
                        eps_eigval:                                     1.00E-05
                        --------------------------------------------------------
                        level_shift [a.u.]:                             0.000000
                        added MOs                                       100    0
                        --------------------------------------------------------
                        Mixing method:                            BROYDEN_MIXING
                                                charge density mixing in g-space
                        --------------------------------------------------------
                        Smear method:                                FERMI_DIRAC
                        Electronic temperature [K]:                        300.0
                        Electronic temperature [a.u.]:                  9.50E-04
                        Accuracy threshold:                             1.00E-10
                        --------------------------------------------------------
                        Outer loop SCF in use 
                        No variables optimised in outer loop
                        eps_scf                                         1.00E-06
                        max_scf                                               30
                        DIIS optimization
                        DIIS buffer length                                     3
                        step_size                                       5.00E-01

 Number of electrons:                                                        477
 Number of occupied orbitals:                                                239
 Number of molecular orbitals:                                               339

 Number of orbital functions:                                               1553
 Number of independent orbital functions:                                   1553

 Extrapolation method: initial_guess


 SCF WAVEFUNCTION OPTIMIZATION

  Step     Update method      Time    Convergence         Total energy    Change
  ------------------------------------------------------------------------------
     1 NoMix/Diag. 0.10E+00   19.9     0.97783990      -702.5760617234 -7.03E+02
     2 Broy./Diag. 0.10E+00   21.4     0.05687545      -676.2455397827  2.63E+01
     3 Broy./Diag. 0.10E+00   19.0     0.61566098      -694.1243094677 -1.79E+01
     4 Broy./Diag. 0.10E+00   23.3     0.31671791      -703.9083710361 -9.78E+00
     5 Broy./Diag. 0.10E+00   22.0     0.08913619      -704.5443592181 -6.36E-01
     6 Broy./Diag. 0.10E+00   21.6     0.17546497      -706.5967162114 -2.05E+00
     7 Broy./Diag. 0.10E+00   21.1     0.24897522      -707.4288067256 -8.32E-01
     8 Broy./Diag. 0.10E+00   24.1     0.02828396      -707.5484186845 -1.20E-01
     9 Broy./Diag. 0.10E+00   25.3     0.03220997      -707.8910192587 -3.43E-01
    10 Broy./Diag. 0.10E+00   20.3     0.01727556      -708.2863483741 -3.95E-01
    11 Broy./Diag. 0.10E+00   24.0     0.58749229      -708.4546110685 -1.68E-01
    12 Broy./Diag. 0.10E+00   21.4     0.25748883      -708.5875191116 -1.33E-01
    13 Broy./Diag. 0.10E+00   18.5     0.06756403      -708.6394757628 -5.20E-02
    14 Broy./Diag. 0.10E+00   23.1     0.17182586      -708.7226982417 -8.32E-02
    15 Broy./Diag. 0.10E+00   19.1     0.01173108      -708.8157749778 -9.31E-02
    16 Broy./Diag. 0.10E+00   20.7     0.03329346      -708.8928979487 -7.71E-02
    17 Broy./Diag. 0.10E+00   20.3     0.00869618      -709.0160996617 -1.23E-01
    18 Broy./Diag. 0.10E+00   18.5     0.02006138      -709.0928415447 -7.67E-02
    19 Broy./Diag. 0.10E+00   21.9     0.08822671      -709.1580939770 -6.53E-02
    20 Broy./Diag. 0.10E+00   20.1     0.00803738      -709.1862960215 -2.82E-02
    21 Broy./Diag. 0.10E+00   18.9     0.00713781      -709.2079674153 -2.17E-02
    22 Broy./Diag. 0.10E+00   23.2     0.06721259      -709.2161025435 -8.14E-03
    23 Broy./Diag. 0.10E+00   20.4     0.02403209      -709.2122884821  3.81E-03
    24 Broy./Diag. 0.10E+00   20.7     0.02013969      -709.1737246708  3.86E-02
    25 Broy./Diag. 0.10E+00   22.5     0.00928768      -709.1247943812  4.89E-02
    26 Broy./Diag. 0.10E+00   22.8     0.00168393      -709.0984130884  2.64E-02
    27 Broy./Diag. 0.10E+00   22.4     0.00127917      -709.0905552551  7.86E-03
    28 Broy./Diag. 0.10E+00   23.3     0.00039439      -709.0863654090  4.19E-03
    29 Broy./Diag. 0.10E+00   20.1     0.00165810      -709.1008025666 -1.44E-02
    30 Broy./Diag. 0.10E+00   20.0     0.00111164      -709.1210569854 -2.03E-02
    31 Broy./Diag. 0.10E+00   18.8     0.00065609      -709.1322190417 -1.12E-02
    32 Broy./Diag. 0.10E+00   20.7     0.00044600      -709.1356702803 -3.45E-03
    33 Broy./Diag. 0.10E+00   22.4     0.00027218      -709.1384189907 -2.75E-03
    34 Broy./Diag. 0.10E+00   20.7     0.00038645      -709.1378172433  6.02E-04
    35 Broy./Diag. 0.10E+00   22.9     0.00031023      -709.1389823501 -1.17E-03
    36 Broy./Diag. 0.10E+00   22.9     0.00012537      -709.1393013475 -3.19E-04
    37 Broy./Diag. 0.10E+00   20.8     0.00018382      -709.1355795290  3.72E-03
    38 Broy./Diag. 0.10E+00   20.8     0.00011579      -709.1333058923  2.27E-03
    39 Broy./Diag. 0.10E+00   21.9     0.00037924      -709.1327408340  5.65E-04
    40 Broy./Diag. 0.10E+00   23.1     0.00010553      -709.1318387959  9.02E-04
    41 Broy./Diag. 0.10E+00   19.9     0.00004664      -709.1317259104  1.13E-04
    42 Broy./Diag. 0.10E+00   22.8     0.00008380      -709.1336127965 -1.89E-03
    43 Broy./Diag. 0.10E+00   23.4     0.00003201      -709.1342375640 -6.25E-04
    44 Broy./Diag. 0.10E+00   20.5     0.00011055      -709.1343645630 -1.27E-04
    45 Broy./Diag. 0.10E+00   23.5     0.00004130      -709.1340105370  3.54E-04
    46 Broy./Diag. 0.10E+00   20.5     0.00004445      -709.1337385003  2.72E-04
    47 Broy./Diag. 0.10E+00   22.3     0.00000619      -709.1337641199 -2.56E-05
    48 Broy./Diag. 0.10E+00   20.4     0.00001692      -709.1338767004 -1.13E-04
    49 Broy./Diag. 0.10E+00   21.5     0.00001281      -709.1339024233 -2.57E-05
    50 Broy./Diag. 0.10E+00   20.5     0.00000746      -709.1338848161  1.76E-05
    51 Broy./Diag. 0.10E+00   21.8     0.00001914      -709.1339240907 -3.93E-05
    52 Broy./Diag. 0.10E+00   21.5     0.00000379      -709.1340500314 -1.26E-04
    53 Broy./Diag. 0.10E+00   19.1     0.00001329      -709.1341167510 -6.67E-05
    54 Broy./Diag. 0.10E+00   19.8     0.00000832      -709.1342448015 -1.28E-04
    55 Broy./Diag. 0.10E+00   22.4     0.00001210      -709.1343508087 -1.06E-04
    56 Broy./Diag. 0.10E+00   20.9     0.00000317      -709.1343568380 -6.03E-06
    57 Broy./Diag. 0.10E+00   18.3     0.00000272      -709.1342765253  8.03E-05
    58 Broy./Diag. 0.10E+00   20.6     0.00000369      -709.1342386168  3.79E-05
    59 Broy./Diag. 0.10E+00   23.2     0.00000529      -709.1342280610  1.06E-05
    60 Broy./Diag. 0.10E+00   20.9     0.00000162      -709.1342059502  2.21E-05
    61 Broy./Diag. 0.10E+00   22.3     0.00000147      -709.1341830210  2.29E-05
    62 Broy./Diag. 0.10E+00   19.6     0.00000109      -709.1341725234  1.05E-05
    63 Broy./Diag. 0.10E+00   19.2     0.00000141      -709.1341732860 -7.63E-07
    64 Broy./Diag. 0.10E+00   21.9     0.00000087      -709.1341700630  3.22E-06
    65 Broy./Diag. 0.10E+00   19.5     0.00000134      -709.1341730137 -2.95E-06
    66 Broy./Diag. 0.10E+00   20.0     0.00000039      -709.1341592621  1.38E-05
    67 Broy./Diag. 0.10E+00   22.6     0.00000093      -709.1341460730  1.32E-05
    68 Broy./Diag. 0.10E+00   21.7     0.00000044      -709.1341337723  1.23E-05
    69 Broy./Diag. 0.10E+00   21.6     0.00000040      -709.1341319397  1.83E-06
    70 Broy./Diag. 0.10E+00   22.4     0.00000041      -709.1341324172 -4.78E-07
    71 Broy./Diag. 0.10E+00   20.0     0.00000023      -709.1341308783  1.54E-06

  *** SCF run converged in    71 steps ***


  Electronic density on regular grids:       -477.0001245013       -0.0001245013
  Core density on regular grids:              476.9999999997       -0.0000000003
  Total charge density on r-space grids:       -0.0001245016
  Total charge density g-space grids:          -0.0001245016

  Overlap energy of the core charge distribution:               0.00002406482590
  Self energy of the core charge distribution:              -1651.40022049530035
  Core Hamiltonian energy:                                    516.58712764523932
  Hartree energy:                                             637.03290333387281
  Exchange-correlation energy:                               -211.21881317872044
  Dispersion energy:                                           -0.13301470213554
  Electronic entropic energy:                                  -0.00213754615345
  Fermi energy:                                                -0.11956365158158

  Total energy:                                              -709.13413087833908

  outer SCF iter =    1 RMS gradient =   0.23E-06 energy =       -709.1341308783
  outer SCF loop converged in   1 iterations or   71 steps


 *** WARNING in qs_loc_utils.F:1500 :: User requested the calculation of ***
 *** the localized wavefunction but the section LOCALIZE was not         ***
 *** specified. Localization will not be performed!                      ***


 -------------------------------------------------------------------------------
 -                                                                             -
 -  BSSE CALCULATION         FRAGMENT CONF: 11        FRAGMENT SUBCONF: 01     -
 -                           CHARGE =     0           MULTIPLICITY =     0     -
 -                                                                             -
 -                 ATOM INDEX                              ATOM NAME           -
 -                 ----------                              ---------           -
 -                      1                                   C_ghost            -
 -                      2                                   C_ghost            -
 -                      3                                   C_ghost            -
 -                      4                                   C_ghost            -
 -                      5                                   C_ghost            -
 -                      6                                   C_ghost            -
 -                      7                                   C_ghost            -
 -                      8                                   C_ghost            -
 -                      9                                   C_ghost            -
 -                     10                                   C_ghost            -
 -                     11                                   C_ghost            -
 -                     12                                   C_ghost            -
 -                     13                                   C_ghost            -
 -                     14                                   C_ghost            -
 -                     15                                   C_ghost            -
 -                     16                                   C_ghost            -
 -                     17                                   C_ghost            -
 -                     18                                   C_ghost            -
 -                     19                                   C_ghost            -
 -                     20                                   C_ghost            -
 -                     21                                   C_ghost            -
 -                     22                                   C_ghost            -
 -                     23                                   C_ghost            -
 -                     24                                   C_ghost            -
 -                     25                                   C_ghost            -
 -                     26                                   C_ghost            -
 -                     27                                   C_ghost            -
 -                     28                                   C_ghost            -
 -                     29                                   C_ghost            -
 -                     30                                   C_ghost            -
 -                     31                                   C_ghost            -
 -                     32                                   C_ghost            -
 -                     33                                   C_ghost            -
 -                     34                                   C_ghost            -
 -                     35                                   C_ghost            -
 -                     36                                   C_ghost            -
 -                     37                                   C_ghost            -
 -                     38                                   C_ghost            -
 -                     39                                   C_ghost            -
 -                     40                                   C_ghost            -
 -                     41                                   C_ghost            -
 -                     42                                   C_ghost            -
 -                     43                                   C_ghost            -
 -                     44                                   C_ghost            -
 -                     45                                   C_ghost            -
 -                     46                                   C_ghost            -
 -                     47                                   C_ghost            -
 -                     48                                   C_ghost            -
 -                     49                                   C_ghost            -
 -                     50                                   C_ghost            -
 -                     51                                   C_ghost            -
 -                     52                                   C_ghost            -
 -                     53                                   C_ghost            -
 -                     54                                   C_ghost            -
 -                     55                                   C_ghost            -
 -                     56                                   C_ghost            -
 -                     57                                   C_ghost            -
 -                     58                                   C_ghost            -
 -                     59                                   C_ghost            -
 -                     60                                   C_ghost            -
 -                     61                                   C_ghost            -
 -                     62                                   C_ghost            -
 -                     63                                   C_ghost            -
 -                     64                                   C_ghost            -
 -                     65                                   C_ghost            -
 -                     66                                   C_ghost            -
 -                     67                                   C_ghost            -
 -                     68                                   C_ghost            -
 -                     69                                   C_ghost            -
 -                     70                                   C_ghost            -
 -                     71                                   C_ghost            -
 -                     72                                   C_ghost            -
 -                     73                                   C_ghost            -
 -                     74                                   C_ghost            -
 -                     75                                   C_ghost            -
 -                     76                                   C_ghost            -
 -                     77                                   C_ghost            -
 -                     78                                   C_ghost            -
 -                     79                                   C_ghost            -
 -                     80                                   C_ghost            -
 -                     81                                   C_ghost            -
 -                     82                                   C_ghost            -
 -                     83                                   C_ghost            -
 -                     84                                   C_ghost            -
 -                     85                                   C_ghost            -
 -                     86                                   C_ghost            -
 -                     87                                   C_ghost            -
 -                     88                                   C_ghost            -
 -                     89                                   C_ghost            -
 -                     90                                   C_ghost            -
 -                     91                                   C_ghost            -
 -                     92                                   C_ghost            -
 -                     93                                   C_ghost            -
 -                     94                                   C_ghost            -
 -                     95                                   C_ghost            -
 -                     96                                   C_ghost            -
 -                     97                                   C_ghost            -
 -                     98                                   C_ghost            -
 -                     99                                   C_ghost            -
 -                    100                                   C_ghost            -
 -                    101                                   C_ghost            -
 -                    102                                   C_ghost            -
 -                    103                                   C_ghost            -
 -                    104                                   C_ghost            -
 -                    105                                   C_ghost            -
 -                    106                                   C_ghost            -
 -                    107                                   C_ghost            -
 -                    108                                   C_ghost            -
 -                    109                                   C_ghost            -
 -                    110                                   C_ghost            -
 -                    111                                   C_ghost            -
 -                    112                                   C_ghost            -
 -                    113                                   H_ghost            -
 -                    114                                   H_ghost            -
 -                    115                                   H_ghost            -
 -                    116                                   H_ghost            -
 -                    117                                   H_ghost            -
 -                    118                                   H_ghost            -
 -                    119                                   H_ghost            -
 -                    120                                   H_ghost            -
 -                    121                                   H_ghost            -
 -                    122                                   Na_ghost           -
 -                    123                                   O_ghost            -
 -                    124                                   H_ghost            -
 -                    125                                   H_ghost            -
 -                    126                                   H_ghost            -
 -                    127                                   H_ghost            -
 -                    128                                   H_ghost            -
 -                    129                                   H                  -
 -------------------------------------------------------------------------------

 *******************************************************************************
 *******************************************************************************
 **                                                                           **
 **     #####                         ##              ##                      **
 **    ##   ##            ##          ##              ##                      **
 **   ##     ##                       ##            ######                    **
 **   ##     ##  ##   ##  ##   #####  ##  ##   ####   ##    #####    #####    **
 **   ##     ##  ##   ##  ##  ##      ## ##   ##      ##   ##   ##  ##   ##   **
 **   ##  ## ##  ##   ##  ##  ##      ####     ###    ##   ######   ######    **
 **    ##  ###   ##   ##  ##  ##      ## ##      ##   ##   ##       ##        **
 **     #######   #####   ##   #####  ##  ##  ####    ##    #####   ##        **
 **           ##                                                    ##        **
 **                                                                           **
 **                                                ... make the atoms dance   **
 **                                                                           **
 **            Copyright (C) by CP2K developers group (2000-2022)             **
 **                      J. Chem. Phys. 152, 194103 (2020)                    **
[...]
 *** the localized wavefunction but the section LOCALIZE was not         ***
 *** specified. Localization will not be performed!                      ***


 -------------------------------------------------------------------------------
 -                                                                             -
 -                                 BSSE RESULTS                                -
 -                                                                             -
 -                 CP-corrected Total energy:     -709.758789                  -
 -                                                                             -
 -                       1-body contribution:     -709.133321                  -
 -                       1-body contribution:       -0.408657                  -
 -                                                                             -
 -                       2-body contribution:       -0.216811                  -
 -                 BSSE-free interaction energy:       -0.216811               -
 -------------------------------------------------------------------------------

 -------------------------------------------------------------------------------
 -                                                                             -
 -                                DBCSR STATISTICS                             -
 -                                                                             -
 -------------------------------------------------------------------------------
 COUNTER                                    TOTAL       BLAS       SMM       ACC
 flops     9 x     9 x     5                36450     100.0%      0.0%      0.0%
 flops     9 x     5 x     5                60750     100.0%      0.0%      0.0%
 flops     5 x     9 x     5                81000     100.0%      0.0%      0.0%
 flops     9 x     9 x    32               699840     100.0%      0.0%      0.0%
 flops     5 x     5 x     5               722750     100.0%      0.0%      0.0%
 flops     9 x     5 x    32              1166400     100.0%      0.0%      0.0%
 flops     5 x     9 x    32              1555200     100.0%      0.0%      0.0%
 flops     9 x     9 x    64              2208384     100.0%      0.0%      0.0%
 flops    13 x     9 x     5              2474550     100.0%      0.0%      0.0%
 flops     9 x    13 x     5              2579850     100.0%      0.0%      0.0%
 flops     9 x     9 x    83              2863998     100.0%      0.0%      0.0%
 flops     9 x     5 x    64              3680640     100.0%      0.0%      0.0%
 flops     5 x     9 x    64              4504320     100.0%      0.0%      0.0%
 flops     9 x     5 x    83              4773330     100.0%      0.0%      0.0%
 flops     5 x     9 x    83              5841540     100.0%      0.0%      0.0%
 flops     9 x     9 x    96              6625152     100.0%      0.0%      0.0%
 flops     9 x     5 x    96             11041920     100.0%      0.0%      0.0%
 flops     5 x     9 x    96             13512960     100.0%      0.0%      0.0%
 flops     5 x     5 x    32             13824000     100.0%      0.0%      0.0%
 flops    13 x     5 x     5             17784000     100.0%      0.0%      0.0%
 flops     5 x    13 x     5             17959500     100.0%      0.0%      0.0%
 flops     5 x     5 x    64             42054400     100.0%      0.0%      0.0%
 flops    13 x     9 x    32             47511360     100.0%      0.0%      0.0%
 flops     9 x    13 x    32             49533120     100.0%      0.0%      0.0%
 flops     5 x     5 x    83             54539300     100.0%      0.0%      0.0%
 flops     5 x     5 x    96            126163200     100.0%      0.0%      0.0%
 flops    13 x     9 x    64            149924736     100.0%      0.0%      0.0%
 flops     9 x    13 x    64            156304512     100.0%      0.0%      0.0%
 flops    13 x     9 x    83            194433642     100.0%      0.0%      0.0%
 flops     9 x    13 x    83            202707414     100.0%      0.0%      0.0%
 flops    13 x     5 x    32            341452800     100.0%      0.0%      0.0%
 flops     5 x    13 x    32            344822400     100.0%      0.0%      0.0%
 flops    13 x    13 x     5            437439600     100.0%      0.0%      0.0%
 flops    13 x     9 x    96            449774208     100.0%      0.0%      0.0%
 flops     9 x    13 x    96            468913536     100.0%      0.0%      0.0%
 flops    13 x     5 x    64           1054177280     100.0%      0.0%      0.0%
 flops     5 x    13 x    64           1063645440     100.0%      0.0%      0.0%
 flops    13 x     5 x    83           1367136160     100.0%      0.0%      0.0%
 flops     5 x    13 x    83           1379415180     100.0%      0.0%      0.0%
 flops    13 x     5 x    96           3162531840     100.0%      0.0%      0.0%
 flops     5 x    13 x    96           3190936320     100.0%      0.0%      0.0%
 flops    13 x    13 x    32           8398840320     100.0%      0.0%      0.0%
 flops    13 x    13 x    64          26503007232     100.0%      0.0%      0.0%
 flops    13 x    13 x    83          34371087504     100.0%      0.0%      0.0%
 flops    13 x    13 x    96          79509021696     100.0%      0.0%      0.0%
 flops inhomo. stacks                           0       0.0%      0.0%      0.0%
 flops total                       163.179370E+09     100.0%      0.0%      0.0%
 flops max/rank                     10.529199E+09     100.0%      0.0%      0.0%
 matmuls inhomo. stacks                         0       0.0%      0.0%      0.0%
 matmuls total                            7345355     100.0%      0.0%      0.0%
 number of processed stacks                 78163     100.0%      0.0%      0.0%
 average stack size                                    94.0       0.0       0.0
 marketing flops                   248.319738E+09
 -------------------------------------------------------------------------------
 # multiplications                            269
 max memory usage/rank               1.199960E+09
 # max total images/rank                        1
 # max 3D layers                                1
 # MPI messages exchanged                   25824
 MPI messages size (bytes):
  total size                         5.715722E+09
  min size                           0.000000E+00
  max size                         298.752000E+03
  average size                     221.333703E+03
 MPI breakdown and total messages size (bytes):
             size <=      128                 990                        0
       128 < size <=     8192                  66                    13200
      8192 < size <=    32768                1080                 16772400
     32768 < size <=   131072                3240                322030080
    131072 < size <=  4194304               20448               5376903408
   4194304 < size <= 16777216                   0                        0
  16777216 < size                               0                        0
 -------------------------------------------------------------------------------
 -                                                                             -
 -                      DBCSR MESSAGE PASSING PERFORMANCE                      -
 -                                                                             -
 -------------------------------------------------------------------------------
 ROUTINE             CALLS      AVE VOLUME [Bytes]
 MP_Bcast               46                     12.
 MP_Allreduce         1997                      9.
 MP_Alltoall          7592                 273909.
 MP_ISend             4304                  91562.
 MP_IRecv             4304                  79947.
 -------------------------------------------------------------------------------

 -------------------------------------------------------------------------------
 -                                                                             -
 -                                DBM STATISTICS                               -
 -                                                                             -
 -------------------------------------------------------------------------------
    M  x    N  x    K                                          COUNT     PERCENT
 -------------------------------------------------------------------------------

 -------------------------------------------------------------------------------
 -                                                                             -
 -                                GRID STATISTICS                              -
 -                                                                             -
 -------------------------------------------------------------------------------
 LP    KERNEL             BACKEND                              COUNT     PERCENT
 4     collocate general  REF                               13657536      41.89%
 4     integrate general  REF                               13449024      41.25%
 3     collocate general  REF                                2463266       7.55%
 3     integrate general  REF                                2425608       7.44%
 2     collocate general  REF                                 304826       0.93%
 2     integrate general  REF                                 300141       0.92%
 0     collocate general  REF                                   6192       0.02%
 -------------------------------------------------------------------------------

 MEMORY| Estimated peak process memory [MiB]                                1145

 -------------------------------------------------------------------------------
 -                                                                             -
 -                         MESSAGE PASSING PERFORMANCE                         -
 -                                                                             -
 -------------------------------------------------------------------------------

 ROUTINE             CALLS      AVE VOLUME [Bytes]
 MP_Group               24
 MP_Bcast              810                2529987.
 MP_Allreduce         3591                   2815.
 MP_Sync               304
 MP_Alltoall          3597               34194681.
 MP_SendRecv         11448                 390787.
 MP_ISendRecv         8070                 251100.
 MP_Wait             34792
 MP_comm_split          11
 MP_ISend            22906                1133347.
 MP_IRecv            22906                1133515.
 MP_Recv               131                 385987.
 -------------------------------------------------------------------------------


 -------------------------------------------------------------------------------
 -                                                                             -
 -                           R E F E R E N C E S                               -
 -                                                                             -
 -------------------------------------------------------------------------------
 
 CP2K version 2023.1, the CP2K developers group (2023).
 CP2K is freely available from https://www.cp2k.org/ .

 Kuehne,Thomas D.; Iannuzzi,Marcella; Del Ben,Mauro;
 Rybkin,Vladimir V.; Seewald,Patrick; Stein,Frederick; Laino,Teodoro;
 Khaliullin,Rustam Z.; Schuett,Ole; Schiffmann,Florian; Golze,Dorothea;
 Wilhelm,Jan; Chulkov,Sergey; Bani-Hashemian,Mohammad Hossein;
 Weber,Valery; Borstnik,Urban; Taillefumier,Mathieu;
 Jakobovits,Alice Shoshana; Lazzaro,Alfio; Pabst,Hans; Mueller,Tiziano;
 Schade,Robert; Guidon,Manuel; Andermatt,Samuel; Holmberg,Nico;
 Schenter,Gregory K.; Hehn,Anna; Bussy,Augustin; Belleflamme,Fabian;
 Tabacchi,Gloria; Gloess,Andreas; Lass,Michael; Bethune,Iain;
 Mundy,Christopher J.; Plessl,Christian; Watkins,Matt;
 VandeVondele,Joost; Krack,Matthias; Hutter,Juerg. 
 The Journal of Chemical Physics, 152 (19), (2020). 
 CP2K: An electronic structure and molecular dynamics software package -
 Quickstep: Efficient and accurate electronic structure calculations.
 https://doi.org/10.1063/5.0007045

 Goerigk, Lars; Hansen, Andreas; Bauer, Christoph; Ehrlich, Stephan;
 Najibi, Asim; Grimme, Stefan. , 19 (48), (2017). 
 A look at the density functional theory zoo with the advanced GMTKN55 database
 for general main group thermochemistry, kinetics and noncovalent interactions.
 https://doi.org/10.1039/C7CP04913G

 Schuett, Ole; Messmer, Peter; Hutter, Juerg; VandeVondele, Joost. 
 Electronic Structure Calculations on Graphics Processing Units, John
 Wiley & Sons, Ltd, 173-190 (2016). 
 GPU-Accelerated Sparse Matrix-Matrix Multiplication for
 Linear Scaling Density Functional Theory.
 https://doi.org/10.1002/9781118670712.ch8

 Borstnik, U; VandeVondele, J; Weber, V; Hutter, J. 
 PARALLEL COMPUTING, 40 (5-6), 47-58 (2014). 
 Sparse matrix multiplication: The distributed block-compressed sparse
 row library.
 https://doi.org/10.1016/j.parco.2014.03.012

 Hutter, J; Iannuzzi, M; Schiffmann, F; VandeVondele, J. 
 WIREs Comput Mol Sci., 4 (1), 15-25 (2014). 
 CP2K: atomistic simulations of condensed matter systems.
 https://doi.org/10.1002/wcms.1159

 Marek, A; Blum, V; Johanni, R; Havu, V; Lang, B; Auckenthaler, T;
 Heinecke, A; Bungartz, H; Lederer, H. 
 Journal of Physics: Condensed Matter, 26 (21), (2014). 
 The ELPA library: scalable parallel eigenvalue solutions for
 electronic structure
 theory and computational science.
 https://doi.org/10.1088/0953-8984/26/21/213201

 Grimme, S; Ehrlich, S; Goerigk, L. 
 JOURNAL OF COMPUTATIONAL CHEMISTRY, 32, 1456 (2011). 
 Effect of the damping function in dispersion corrected density functional theory.
 https://doi.org/10.1002/jcc.21759

 Grimme, S; Antony, J; Ehrlich, S; Krieg, H. 
 JOURNAL OF CHEMICAL PHYSICS, 132 (15), 154104 (2010). 
 A consistent and accurate ab initio parametrization of density
 functional dispersion correction (DFT-D) for the 94 elements H-Pu.
 https://doi.org/10.1063/1.3382344

 VandeVondele, J; Hutter, J. 
 JOURNAL OF CHEMICAL PHYSICS, 127 (11), 114105 (2007). 
 Gaussian basis sets for accurate calculations on molecular systems in
 gas and condensed phases.
 https://doi.org/10.1063/1.2770708

 Krack, M. 
 THEORETICAL CHEMISTRY ACCOUNTS, 114 (1-3), 145-152 (2005). 
 Pseudopotentials for H to Kr optimized for gradient-corrected
 exchange-correlation functionals.
 https://doi.org/10.1007/s00214-005-0655-y

 VandeVondele, J; Krack, M; Mohamed, F; Parrinello, M; Chassaing, T;
 Hutter, J. COMPUTER PHYSICS COMMUNICATIONS, 167 (2), 103-128 (2005). 
 QUICKSTEP: Fast and accurate density functional calculations using a
 mixed Gaussian and plane waves approach.
 https://doi.org/10.1016/j.cpc.2004.12.014

 Frigo, M; Johnson, SG. 
 PROCEEDINGS OF THE IEEE, 93 (2), 216-231 (2005). 
 The design and implementation of FFTW3.
 https://doi.org/10.1109/JPROC.2004.840301

 Hartwigsen, C; Goedecker, S; Hutter, J. 
 PHYSICAL REVIEW B, 58 (7), 3641-3662 (1998). 
 Relativistic separable dual-space Gaussian pseudopotentials from H to Rn.
 https://doi.org/10.1103/PhysRevB.58.3641

 Lippert, G; Hutter, J; Parrinello, M. 
 MOLECULAR PHYSICS, 92 (3), 477-487 (1997). 
 A hybrid Gaussian and plane wave density functional scheme.
 https://doi.org/10.1080/002689797170220

 Perdew, JP; Burke, K; Ernzerhof, M. 
 PHYSICAL REVIEW LETTERS, 77 (18), 3865-3868 (1996). 
 Generalized gradient approximation made simple.
 https://doi.org/10.1103/PhysRevLett.77.3865

 Goedecker, S; Teter, M; Hutter, J. 
 PHYSICAL REVIEW B, 54 (3), 1703-1710 (1996). 
 Separable dual-space Gaussian pseudopotentials.
 https://doi.org/10.1103/PhysRevB.54.1703


 -------------------------------------------------------------------------------
 -                                                                             -
 -                                T I M I N G                                  -
 -                                                                             -
 -------------------------------------------------------------------------------
 SUBROUTINE                       CALLS  ASD         SELF TIME        TOTAL TIME
                                MAXIMUM       AVERAGE  MAXIMUM  AVERAGE  MAXIMUM
 CP2K                                 1  1.0    2.122    2.235 5517.069 5517.080
 qs_energies                          5  2.0    0.000    0.001 5486.644 5486.893
 scf_env_do_scf                       5  3.0    0.001    0.001 5456.475 5456.704
 scf_env_do_scf_inner_loop          269  4.0    0.012    0.045 5456.474 5456.703
 qs_scf_new_mos                     269  5.0    0.006    0.021 3866.141 3866.857
 eigensolver                        269  6.0    0.023    0.032 3604.762 3607.371
 cp_fm_diag_elpa                    258  7.0    0.002    0.002 2788.517 2791.650
 cp_fm_diag_elpa_base               258  8.0 2778.400 2780.648 2781.505 2782.214
 cp_fm_triangular_multiply          807  7.0  805.591  810.592  805.591  810.592
 qs_ks_update_qs_env                269  5.0    0.005    0.019  788.384  789.415
 rebuild_ks_matrix                  269  6.0    0.002    0.002  775.548  776.273
 qs_ks_build_kohn_sham_matrix       269  7.0    0.060    0.083  775.546  776.271
 qs_rho_update_rho_low              274  5.0    0.003    0.018  547.785  548.400
 calculate_rho_elec                 274  6.0    1.905    2.197  547.782  548.397
 sum_up_and_integrate               269  8.0    3.196    3.472  470.889  471.675
 integrate_v_rspace                 269  9.0    0.018    0.060  467.692  468.580
 pw_transfer                       3522  8.9    0.530    0.617  349.720  354.674
 fft_wrap_pw1pw2                   2984  9.9    0.042    0.068  343.776  348.713
 density_rs2pw                      274  7.0    0.030    0.049  309.239  338.539
 rs_pw_transfer                    2177  9.5    0.043    0.067  283.819  315.818
 fft_wrap_pw1pw2_150               1355 10.2   15.243   15.905  284.482  290.268
 fft3d_ps                          2984 11.9  107.398  114.052  251.792  258.425
 gspace_mixing                      264  5.0    1.855    2.106  245.680  246.033
 grid_collocate_task_list           274  7.0  220.370  244.550  220.370  244.550
 grid_integrate_task_list           269 10.0  206.948  233.621  206.948  233.621
 qs_vxc_create                      269  8.0    0.011    0.023  218.346  220.762
 xc_vxc_pw_create                   269  9.0    3.872    4.252  218.335  220.756
 potential_pw2rs                    269 10.0    0.093    0.123  211.953  212.391
 broyden_mixing                     264  6.0  136.555  140.918  179.127  180.723
 dbcsr_complete_redistribute        812  8.3    0.561    0.613  166.959  168.467
 xc_rho_set_and_dset_create         269 10.0    3.128    3.388  144.457  150.887
 calculate_dm_sparse                269  6.0    0.023    0.054  133.637  135.543
 cp_dbcsr_plus_fm_fm_t_native       269  7.0    0.013    0.053  133.553  135.480
 mp_alltoall_d11v                  3801  9.3  100.357  132.845  100.357  132.845
 copy_dbcsr_to_fm                   274  6.0    0.010    0.028  130.276  130.822
 mp_waitany                       22906 11.5   95.543  128.624   95.543  128.624
 mp_alltoall_z22v                  2984 13.9  108.824  114.950  108.824  114.950
 -------------------------------------------------------------------------------

 The number of warnings for this run is : 62
 
 -------------------------------------------------------------------------------
  **** **** ******  **  PROGRAM ENDED AT                 2025-09-13 22:15:08.092
 ***** ** ***  *** **   PROGRAM RAN ON                                sebnode129
 **    ****   ******    PROGRAM RAN BY                                    luehrs
 ***** **    ** ** **   PROGRAM PROCESS ID                               2285515
  **** **  *******  **  PROGRAM STOPPED IN /home/luehrs/PhD/Sodium_batteries/Sod
                                           ium-graphene-functional_groups/Carbon
                                           yl/Ketone-hydrogenated_edges_zig-zag
