 DBCSR| CPU Multiplication driver                                           BLAS (U)
 DBCSR| Multrec recursion limit                                              512 (U)
 DBCSR| Multiplication stack size                                           1000 (D)
 DBCSR| Maximum elements for images                                    UNLIMITED (U)
 DBCSR| Multiplicative factor virtual images                                   1 (U)
 DBCSR| Use multiplication densification                                       T (D)
 DBCSR| Multiplication size stacks                                             3 (U)
 DBCSR| Use memory pool for CPU allocation                                     F (U)
 DBCSR| Number of 3D layers                                               SINGLE (U)
 DBCSR| Use MPI memory allocation                                              F (U)
 DBCSR| Use RMA algorithm                                                      F (U)
 DBCSR| Use Communication thread                                               T (U)
 DBCSR| Communication thread load                                             87 (D)
 DBCSR| MPI: My process id                                                     0
 DBCSR| MPI: Number of processes                                              16
 DBCSR| OMP: Current number of threads                                         1
 DBCSR| OMP: Max number of threads                                             1
 DBCSR| Split modifier for TAS multiplication algorithm                  1.0E+00 (U)


  **** **** ******  **  PROGRAM STARTED AT               2025-10-15 13:44:20.233
 ***** ** ***  *** **   PROGRAM STARTED ON                            sebnode123
 **    ****   ******    PROGRAM STARTED BY                                luehrs
 ***** **    ** ** **   PROGRAM PROCESS ID                                966510
  **** **  *******  **  PROGRAM STARTED IN /home/luehrs/PhD/Sodium_batteries/Sod
                                           ium-graphene-functional_groups/XPS_Fu
                                           nctional_groups/C_atom_XPS/Zigzag_non
                                           hydrogenated_edges

 CP2K| version string:                                       CP2K version 2023.1
 CP2K| source code revision number:                                  git:b888bd8
 CP2K| cp2kflags: omp libint fftw3 libxc elpa parallel scalapack spglib         
 CP2K| is freely available from                            https://www.cp2k.org/
 CP2K| Program compiled at                          Tue Jan 10 19:52:03 UTC 2023
 CP2K| Program compiled on                                            x86-ubc-01
 CP2K| Program compiled for                                Linux-x86_64-gfortran
 CP2K| Data directory path                                       /usr/share/cp2k
 CP2K| Input file name                                                 input.inp

 GLOBAL| Force Environment number                                              1
 GLOBAL| Basis set file name                                          BASIS_GW2X
 GLOBAL| Potential file name                                           POTENTIAL
 GLOBAL| MM Potential file name                                     MM_POTENTIAL
 GLOBAL| Coordinate file name                                        coords4.xyz
 GLOBAL| Method name                                                        CP2K
 GLOBAL| Project name                                                         HC
 GLOBAL| Run type                                                         ENERGY
 GLOBAL| FFT library                                                       FFTW3
 GLOBAL| Diagonalization library                                            ELPA
 GLOBAL| DGEMM library                                                      BLAS
 GLOBAL| Minimum number of eigenvectors for ELPA usage                        16
 GLOBAL| Orthonormality check for eigenvectors                          DISABLED
 GLOBAL| Matrix multiplication library                                 ScaLAPACK
 GLOBAL| All-to-all communication in single precision                          F
 GLOBAL| FFTs using library dependent lengths                                  F
 GLOBAL| Grid backend                                                       AUTO
 GLOBAL| Global print level                                                 HIGH
 GLOBAL| MPI I/O enabled                                                       T
 GLOBAL| Total number of message passing processes                            16
 GLOBAL| Number of threads for this process                                    1
 GLOBAL| This output is from process                                           0
 GLOBAL| Stack size for threads created by OpenMP (OMP_STACKSIZE)        default
 GLOBAL| CPU model name                 Intel(R) Xeon(R) Gold 6144 CPU @ 3.50GHz

 MEMORY| system memory details [Kb]
 MEMORY|                        rank 0           min           max       average
 MEMORY| MemTotal             65579904      65579904      65579904      65579904
 MEMORY| MemFree              61985160      61985160      61985160      61985160
 MEMORY| Buffers                321684        321684        321684        321684
 MEMORY| Cached                1170524       1170524       1170524       1170524
 MEMORY| Slab                   334216        334216        334216        334216
 MEMORY| SReclaimable           126132        126132        126132        126132
 MEMORY| MemLikelyFree        63603500      63603500      63603500      63603500


 *** Fundamental physical constants (SI units) ***

 *** Literature: B. J. Mohr and B. N. Taylor,
 ***             CODATA recommended values of the fundamental physical
 ***             constants: 2006, Web Version 5.1
 ***             http://physics.nist.gov/constants

 Speed of light in vacuum [m/s]                             2.99792458000000E+08
 Magnetic constant or permeability of vacuum [N/A**2]       1.25663706143592E-06
 Electric constant or permittivity of vacuum [F/m]          8.85418781762039E-12
 Planck constant (h) [J*s]                                  6.62606896000000E-34
 Planck constant (h-bar) [J*s]                              1.05457162825177E-34
 Elementary charge [C]                                      1.60217648700000E-19
 Electron mass [kg]                                         9.10938215000000E-31
 Electron g factor [ ]                                     -2.00231930436220E+00
 Proton mass [kg]                                           1.67262163700000E-27
 Fine-structure constant                                    7.29735253760000E-03
 Rydberg constant [1/m]                                     1.09737315685270E+07
 Avogadro constant [1/mol]                                  6.02214179000000E+23
 Boltzmann constant [J/K]                                   1.38065040000000E-23
 Atomic mass unit [kg]                                      1.66053878200000E-27
 Bohr radius [m]                                            5.29177208590000E-11

 *** Conversion factors ***

 [u] -> [a.u.]                                              1.82288848426455E+03
 [Angstrom] -> [Bohr] = [a.u.]                              1.88972613288564E+00
 [a.u.] = [Bohr] -> [Angstrom]                              5.29177208590000E-01
 [a.u.] -> [s]                                              2.41888432650478E-17
 [a.u.] -> [fs]                                             2.41888432650478E-02
 [a.u.] -> [J]                                              4.35974393937059E-18
 [a.u.] -> [N]                                              8.23872205491840E-08
 [a.u.] -> [K]                                              3.15774647902944E+05
 [a.u.] -> [kJ/mol]                                         2.62549961709828E+03
 [a.u.] -> [kcal/mol]                                       6.27509468713739E+02
 [a.u.] -> [Pa]                                             2.94210107994716E+13
 [a.u.] -> [bar]                                            2.94210107994716E+08
 [a.u.] -> [atm]                                            2.90362800883016E+08
 [a.u.] -> [eV]                                             2.72113838565563E+01
 [a.u.] -> [Hz]                                             6.57968392072181E+15
 [a.u.] -> [1/cm] (wave numbers)                            2.19474631370540E+05
 [a.u./Bohr**2] -> [1/cm]                                   5.14048714338585E+03
 

 CELL_TOP| Volume [angstrom^3]:                                     13612.533707
 CELL_TOP| Vector a [angstrom    19.648     0.000     0.000   |a| =    19.648000
 CELL_TOP| Vector b [angstrom    20.000    34.641     0.000   |b| =    40.000000
 CELL_TOP| Vector c [angstrom     0.000     0.000    20.000   |c| =    20.000000
 CELL_TOP| Angle (b,c), alpha [degree]:                                90.000000
 CELL_TOP| Angle (a,c), beta  [degree]:                                90.000000
 CELL_TOP| Angle (a,b), gamma [degree]:                                60.000000
 CELL_TOP| Numerically orthorhombic:                                          NO
 CELL_TOP| Periodicity                                                       XYZ


 SUBCELL GRID  INFO FOR THE NONBONDED NEIGHBOR LISTS

    NUMBER OF SUBCELLS             ::                   6        12         7
    NUMBER OF PERIODIC      IMAGES ::                   1         1         1
    NUMBER OF INTERACTING SUBCELLS ::                   2         2         2

 GENERATE|  Preliminary Number of Bonds generated:                             0
 GENERATE|  Achieved consistency in connectivity generation.

 CELL| Volume [angstrom^3]:                                         13612.533707
 CELL| Vector a [angstrom]:      19.648     0.000     0.000   |a| =    19.648000
 CELL| Vector b [angstrom]:      20.000    34.641     0.000   |b| =    40.000000
 CELL| Vector c [angstrom]:       0.000     0.000    20.000   |c| =    20.000000
 CELL| Angle (b,c), alpha [degree]:                                    90.000000
 CELL| Angle (a,c), beta  [degree]:                                    90.000000
 CELL| Angle (a,b), gamma [degree]:                                    60.000000
 CELL| Numerically orthorhombic:                                              NO
 CELL| Periodicity                                                           XYZ

 CELL_REF| Volume [angstrom^3]:                                     13612.533707
 CELL_REF| Vector a [angstrom    19.648     0.000     0.000   |a| =    19.648000
 CELL_REF| Vector b [angstrom    20.000    34.641     0.000   |b| =    40.000000
 CELL_REF| Vector c [angstrom     0.000     0.000    20.000   |c| =    20.000000
 CELL_REF| Angle (b,c), alpha [degree]:                                90.000000
 CELL_REF| Angle (a,c), beta  [degree]:                                90.000000
 CELL_REF| Angle (a,b), gamma [degree]:                                60.000000
 CELL_REF| Numerically orthorhombic:                                          NO
 CELL_REF| Periodicity                                                       XYZ

 *******************************************************************************
 *******************************************************************************
 **                                                                           **
 **     #####                         ##              ##                      **
 **    ##   ##            ##          ##              ##                      **
 **   ##     ##                       ##            ######                    **
 **   ##     ##  ##   ##  ##   #####  ##  ##   ####   ##    #####    #####    **
 **   ##     ##  ##   ##  ##  ##      ## ##   ##      ##   ##   ##  ##   ##   **
 **   ##  ## ##  ##   ##  ##  ##      ####     ###    ##   ######   ######    **
 **    ##  ###   ##   ##  ##  ##      ## ##      ##   ##   ##       ##        **
 **     #######   #####   ##   #####  ##  ##  ####    ##    #####   ##        **
 **           ##                                                    ##        **
 **                                                                           **
 **                                                ... make the atoms dance   **
 **                                                                           **
 **            Copyright (C) by CP2K developers group (2000-2022)             **
 **                      J. Chem. Phys. 152, 194103 (2020)                    **
 **                                                                           **
 *******************************************************************************

 RADII: ORBITAL BASIS in angstrom            Kind   Label     Radius  OCE Radius
                                                1   C       5.464310    5.464310
                                                2   Cx     10.586320   10.586320

 RADII: SHELL SETS OF ORBITAL BASIS in angstrom   Kind  Label   Set       Radius
                                                     1  C         1     5.464310
                                                     2  Cx        1     1.029760
                                                                  2     2.248558
                                                                  3     3.510222
                                                                  4     5.301536
                                                                  5     8.278841
                                                                  6     2.111957
                                                                  7     3.589446
                                                                  8     6.086067
                                                                  9    10.586320
                                                                 10     1.764030
                                                                 11     3.018919
                                                                 12     6.928919
                                                                 13     2.271820
                                                                 14     6.534266

 RADII: PRIMITIVE GAUSSIANS OF ORBITAL BASIS in anKindomLabel   Set       Radius
                                                     1  C         1     0.802859
                                                                        1.314668
                                                                        2.308781
                                                                        3.176889
                                                                        5.464310
                                                     2  Cx        1     0.020115
                                                                        0.053438
                                                                        0.114577
                                                                        0.218970
                                                                        0.387975
                                                                        0.647712
                                                                        1.029760
                                                     2  Cx        2     0.735149
                                                                        2.248558
                                                     2  Cx        3     3.510222
                                                     2  Cx        4     5.301536
                                                     2  Cx        5     8.278841
                                                     2  Cx        6     0.299696
                                                                        0.653823
                                                                        1.233581
                                                                        2.111957
                                                     2  Cx        7     3.589446
                                                     2  Cx        8     6.086067
                                                     2  Cx        9    10.586320
                                                     2  Cx       10     1.764030
                                                     2  Cx       11     3.018919
                                                     2  Cx       12     6.928919
                                                     2  Cx       13     2.271820
                                                     2  Cx       14     6.534266

 RADII: AUXILLIARY BASIS in angstrom         Kind   Label     Radius  OCE Radius
                                                          1   C         no basis
                                                          2   Cx        no basis

 RADII: SHELL SETS OF AUXILLIARY BASIS in angstromKind  Label   Set       Radius
                                                     1   C              no basis
                                                     2   Cx             no basis

 RADII: PRIMITIVE GAUSSIANS OF AUXILLIARY BASIS inKindstLabel   Set       Radius
                                                     1   C              no basis
                                                     2   Cx             no basis

 RADII: LOCAL RI BASIS in angstrom           Kind   Label     Radius  OCE Radius
                                                          1   C         no basis
                                                          2   Cx        no basis

 RADII: SHELL SETS OF LOCAL RI BASIS in angstrom  Kind  Label   Set       Radius
                                                     1   C              no basis
                                                     2   Cx             no basis

 RADII: PRIMITIVE GAUSSIANS OF LOCAL RI BASIS in aKindroLabel   Set       Radius
                                                     1   C              no basis
                                                     2   Cx             no basis

 RADII: CORE CHARGE DISTRIBUTIONS in angstrom          Kind   Label       Radius
                                                          1   C         1.376023
                                                          2   Cx        1.425687

 RADII: LOCAL PART OF GTH/ELP PP in angstrom           Kind   Label       Radius
                                                          1   C         0.699284

 RADII: NON-LOCAL PART OF GTH PP in angstrom           Kind   Label       Radius
                                                          1   C         0.838527

 RADII: ONE CENTER PROJECTORS in angstrom              Kind   Label       Radius
                                                          1   C         0.895066
                                                          2   Cx        0.895384

 DISTRIBUTION OF THE MOLECULES                    Process    Number of molecules
                                                        0                      7
                                                        1                      7
                                                        2                      5
                                                        3                      7
                                                        4                      7
                                                        5                      7
                                                        6                      7
                                                        7                      7
                                                        8                      8
                                                        9                      7
                                                       10                      7
                                                       11                      7
                                                       12                      7
                                                       13                      7
                                                       14                      8
                                                       15                      7
                                                      Sum                    112

  Process   Kind   Local molecules (global indices)
        0      1         1
               2
               3
               4
               5
               6
               7
               8
               9
              10
              11
              12
              13
              14
              15
              16
              17
              18
              19
              20
              21        21
              22
              23
              24
              25
              26
              27
              28
              29
              30
              31
              32
              33
              34
              35
              36
              37
              38
              39        39
              40
              41
              42
              43
              44
              45
              46
              47
              48        48
              49
              50
              51
              52
              53
              54
              55
              56
              57
              58
              59
              60
              61
              62
              63
              64
              65        65
              66
              67
              68
              69
              70
              71
              72
              73
              74
              75
              76
              77
              78
              79
              80
              81        81
              82
              83
              84
              85
              86
              87
              88
              89
              90
              91
              92
              93
              94
              95
              96
              97        97
              98
              99
             100
             101
             102
             103
             104
             105
             106
             107
             108
             109
             110
             111
             112

 DISTRIBUTION OF THE PARTICLES                    Process    Number of particles
                                                        0                      7
                                                        1                      7
                                                        2                      5
                                                        3                      7
                                                        4                      7
                                                        5                      7
                                                        6                      7
                                                        7                      7
                                                        8                      8
                                                        9                      7
                                                       10                      7
                                                       11                      7
                                                       12                      7
                                                       13                      7
                                                       14                      8
                                                       15                      7
                                                      Sum                    112

  Process   Kind   Local particles (global indices)
        0      1        1    21    39    48    65    81    97
               2

 DFT| Spin unrestricted (spin-polarized) Kohn-Sham calculation               UKS
 DFT| Multiplicity                                                             1
 DFT| Number of spin states                                                    2
 DFT| Charge                                                                   0
 DFT| Self-interaction correction (SIC)                                       NO
 DFT| Cutoffs: density                                              1.000000E-10
 DFT|          gradient                                             1.000000E-10
 DFT|          tau                                                  1.000000E-10
 DFT|          cutoff_smoothing_range                               0.000000E+00
 DFT| XC density smoothing                                                  NONE
 DFT| XC derivatives                                                          PW

 FUNCTIONAL| GGA_X_PBE:
 FUNCTIONAL| [1] J. P. Perdew, K. Burke, and M. Ernzerhof, Phys. Rev. Lett. 77, 
 FUNCTIONAL| 3865 (1996), doi: 10.1103/PhysRevLett.77.3865                      
 FUNCTIONAL| Optional external parameters:                                      
 FUNCTIONAL|  * Asymptotic value of the enhancement function                    
 FUNCTIONAL|  * Coefficient of the 2nd order expansion                          
 FUNCTIONAL| {scale=0.550, spin-polarized}                                      
 FUNCTIONAL| GGA_C_PBE:
 FUNCTIONAL| [1] J. P. Perdew, K. Burke, and M. Ernzerhof, Phys. Rev. Lett. 77, 
 FUNCTIONAL| 3865 (1996), doi: 10.1103/PhysRevLett.77.3865                      
 FUNCTIONAL| Optional external parameters:                                      
 FUNCTIONAL|  * beta constant                                                   
 FUNCTIONAL|  * (1 - ln(2))/Pi^2 in the PBE                                     
 FUNCTIONAL|  * Multiplies the A t^2 term. Used in the SPBE functional          
 FUNCTIONAL| {scale=1.000, spin-polarized}                                      


 QS| Method:                                                                GAPW
 QS| Density plane wave grid type                        NON-SPHERICAL FULLSPACE
 QS| Number of grid levels:                                                    5
 QS| Density cutoff [a.u.]:                                                300.0
 QS| Multi grid cutoff [a.u.]: 1) grid level                               300.0
 QS|                           2) grid level                               100.0
 QS|                           3) grid level                                33.3
 QS|                           4) grid level                                11.1
 QS|                           5) grid level                                 3.7
 QS| Grid level progression factor:                                          3.0
 QS| Relative density cutoff [a.u.]:                                        25.0
 QS| Interaction thresholds: eps_pgf_orb:                                1.0E-05
 QS|                         eps_filter_matrix:                          0.0E+00
 QS|                         eps_core_charge:                            1.0E-12
 QS|                         eps_rho_gspace:                             1.0E-10
 QS|                         eps_rho_rspace:                             1.0E-10
 QS|                         eps_gvg_rspace:                             1.0E-05
 QS|                         eps_ppl:                                    1.0E-02
 QS|                         eps_ppnl:                                   1.0E-07
 QS| GAPW|                   eps_fit:                                    1.0E-04
 QS| GAPW|                   eps_iso:                                    1.0E-12
 QS| GAPW|                   eps_svd:                                    1.0E-08
 QS| GAPW|                   eps_cpc:                                    1.0E-10
 QS| GAPW|   atom-r-grid: quadrature:                                     GC_LOG
 QS| GAPW|      atom-s-grid:  max l :                                          6
 QS| GAPW|      max_l_rho0 :                                                   2


 ATOMIC KIND INFORMATION

  1. Atomic kind: C                                     Number of atoms:     111

     Orbital Basis Set                                        DZVP-MOLOPT-SR-GTH

       Number of orbital shell sets:                                           1
       Number of orbital shells:                                               5
       Number of primitive Cartesian functions:                                5
       Number of Cartesian basis functions:                                   14
       Number of spherical basis functions:                                   13
       Norm type:                                                              2

       Normalised Cartesian orbitals:

                        Set   Shell   Orbital            Exponent    Coefficient

                          1       1    2s                5.605331       0.322515
                                                         2.113016       0.213043
                                                         0.769911      -0.209686
                                                         0.348157      -0.219794
                                                         0.128212      -0.022789

                          1       2    3s                5.605331       0.552234
                                                         2.113016       0.082072
                                                         0.769911       0.007843
                                                         0.348157       0.136893
                                                         0.128212       0.074283

                          1       3    3px               5.605331      -0.703879
                                                         2.113016      -0.642521
                                                         0.769911      -0.374851
                                                         0.348157      -0.139743
                                                         0.128212      -0.027849
                          1       3    3py               5.605331      -0.703879
                                                         2.113016      -0.642521
                                                         0.769911      -0.374851
                                                         0.348157      -0.139743
                                                         0.128212      -0.027849
                          1       3    3pz               5.605331      -0.703879
                                                         2.113016      -0.642521
                                                         0.769911      -0.374851
                                                         0.348157      -0.139743
                                                         0.128212      -0.027849

                          1       4    4px               5.605331      -0.480376
                                                         2.113016      -0.552894
                                                         0.769911      -0.316145
                                                         0.348157       0.210505
                                                         0.128212       0.076095
                          1       4    4py               5.605331      -0.480376
                                                         2.113016      -0.552894
                                                         0.769911      -0.316145
                                                         0.348157       0.210505
                                                         0.128212       0.076095
                          1       4    4pz               5.605331      -0.480376
                                                         2.113016      -0.552894
                                                         0.769911      -0.316145
                                                         0.348157       0.210505
                                                         0.128212       0.076095

                          1       5    4dx2              5.605331       0.640026
                                                         2.113016       0.274300
                                                         0.769911       0.446711
                                                         0.348157       0.028674
                                                         0.128212       0.029790
                          1       5    4dxy              5.605331       1.108557
                                                         2.113016       0.475102
                                                         0.769911       0.773726
                                                         0.348157       0.049666
                                                         0.128212       0.051599
                          1       5    4dxz              5.605331       1.108557
                                                         2.113016       0.475102
                                                         0.769911       0.773726
                                                         0.348157       0.049666
                                                         0.128212       0.051599
                          1       5    4dy2              5.605331       0.640026
                                                         2.113016       0.274300
                                                         0.769911       0.446711
                                                         0.348157       0.028674
                                                         0.128212       0.029790
                          1       5    4dyz              5.605331       1.108557
                                                         2.113016       0.475102
                                                         0.769911       0.773726
                                                         0.348157       0.049666
                                                         0.128212       0.051599
                          1       5    4dz2              5.605331       0.640026
                                                         2.113016       0.274300
                                                         0.769911       0.446711
                                                         0.348157       0.028674
                                                         0.128212       0.029790

     Auxiliary Fit Basis Set                                                FIT3

       Number of orbital shell sets:                                           6
       Number of orbital shells:                                               6
       Number of primitive Cartesian functions:                                6
       Number of Cartesian basis functions:                                   12
       Number of spherical basis functions:                                   12
       Norm type:                                                              2

       Normalised Cartesian orbitals:

                        Set   Shell   Orbital            Exponent    Coefficient

                          1       1    1s                0.143490       0.166160

                          2       1    1s                0.450840       0.392127

                          3       1    1s                4.420950       2.172935

                          4       1    1px               0.152150       0.135450
                          4       1    1py               0.152150       0.135450
                          4       1    1pz               0.152150       0.135450

                          5       1    1px               0.670820       0.865362
                          5       1    1py               0.670820       0.865362
                          5       1    1pz               0.670820       0.865362

                          6       1    1px               3.053900       5.754513
                          6       1    1py               3.053900       5.754513
                          6       1    1pz               3.053900       5.754513

       Atomic covalent radius [Angstrom]:                                  0.770

       Atomic van der Waals radius [Angstrom]:                             1.700

     The atoms of this atomic kind are PAW atoms (GAPW):
       Hard Gaussian function radius:                                      1.512
       Rho0 radius:                                                        1.512
       Maximum GTO radius used for PAW projector construction:            24.566

     GAPW Soft Basis Set                                 DZVP-MOLOPT-SR-GTH_soft

       Number of orbital shell sets:                                           1
       Number of orbital shells:                                               5
       Number of primitive Cartesian functions:                                4
       Number of Cartesian basis functions:                                   14
       Number of spherical basis functions:                                   13
       Norm type:                                                              2

       Normalised Cartesian orbitals:

                        Set   Shell   Orbital            Exponent    Coefficient

                          1       1    2s                2.113016       0.213043
                                                         0.769911      -0.209686
                                                         0.348157      -0.219794
                                                         0.128212      -0.022789

                          1       2    3s                2.113016       0.082072
                                                         0.769911       0.007843
                                                         0.348157       0.136893
                                                         0.128212       0.074283

                          1       3    3px               2.113016      -0.642521
                                                         0.769911      -0.374851
                                                         0.348157      -0.139743
                                                         0.128212      -0.027849
                          1       3    3py               2.113016      -0.642521
                                                         0.769911      -0.374851
                                                         0.348157      -0.139743
                                                         0.128212      -0.027849
                          1       3    3pz               2.113016      -0.642521
                                                         0.769911      -0.374851
                                                         0.348157      -0.139743
                                                         0.128212      -0.027849

                          1       4    4px               2.113016      -0.552894
                                                         0.769911      -0.316145
                                                         0.348157       0.210505
                                                         0.128212       0.076095
                          1       4    4py               2.113016      -0.552894
                                                         0.769911      -0.316145
                                                         0.348157       0.210505
                                                         0.128212       0.076095
                          1       4    4pz               2.113016      -0.552894
                                                         0.769911      -0.316145
                                                         0.348157       0.210505
                                                         0.128212       0.076095

                          1       5    4dx2              2.113016       0.274300
                                                         0.769911       0.446711
                                                         0.348157       0.028674
                                                         0.128212       0.029790
                          1       5    4dxy              2.113016       0.475102
                                                         0.769911       0.773726
                                                         0.348157       0.049666
                                                         0.128212       0.051599
                          1       5    4dxz              2.113016       0.475102
                                                         0.769911       0.773726
                                                         0.348157       0.049666
                                                         0.128212       0.051599
                          1       5    4dy2              2.113016       0.274300
                                                         0.769911       0.446711
                                                         0.348157       0.028674
                                                         0.128212       0.029790
                          1       5    4dyz              2.113016       0.475102
                                                         0.769911       0.773726
                                                         0.348157       0.049666
                                                         0.128212       0.051599
                          1       5    4dz2              2.113016       0.274300
                                                         0.769911       0.446711
                                                         0.348157       0.028674
                                                         0.128212       0.029790

     GTH Potential information for                                       GTH-PBE

       Description:                       Goedecker-Teter-Hutter pseudopotential
                                           Goedecker et al., PRB 54, 1703 (1996)
                                          Hartwigsen et al., PRB 58, 3641 (1998)
                                                      Krack, TCA 114, 145 (2005)

       Gaussian exponent of the core charge distribution:               4.364419
       Electronic configuration (s p d ...):                               2   2

       Parameters of the local part of the GTH pseudopotential:

                          rloc        C1          C2          C3          C4
                        0.338471   -8.803674    1.339211

       Parameters of the non-local part of the GTH pseudopotential:

                   l      r(l)      h(i,j,l)

                   0    0.302576    9.622487
                   1    0.291507

  2. Atomic kind: Cx                                    Number of atoms:       1

     Orbital Basis Set                                               aug-pcseg-2

       Number of orbital shell sets:                                          14
       Number of orbital shells:                                              14
       Number of primitive Cartesian functions:                               24
       Number of Cartesian basis functions:                                   55
       Number of spherical basis functions:                                   46
       Norm type:                                                              2

       Normalised Cartesian orbitals:

                        Set   Shell   Orbital            Exponent    Coefficient

                          1       1    1s             7319.990000       0.349375
                                                      1098.180000       0.650557
                                                       250.014000       1.096680
                                                        70.758600       1.627573
                                                        22.859500       1.933206
                                                         8.039360       1.515585
                                                         2.893090       0.510144

                          2       1    1s                5.216400      -0.507287
                                                         0.556124       0.494060

                          3       1    1s                0.228813       0.235787

                          4       1    1s                0.093634       0.120638

                          5       1    1s                0.035418       0.058187

                          6       1    1px              33.985500       1.362795
                                                         7.729570       1.535057
                                                         2.249540       1.244013
                                                         0.767681       0.729116
                          6       1    1py              33.985500       1.362795
                                                         7.729570       1.535057
                                                         2.249540       1.244013
                                                         0.767681       0.729116
                          6       1    1pz              33.985500       1.362795
                                                         7.729570       1.535057
                                                         2.249540       1.244013
                                                         0.767681       0.729116

                          7       1    1px               0.263283       0.268824
                          7       1    1py               0.263283       0.268824
                          7       1    1pz               0.263283       0.268824

                          8       1    1px               0.084874       0.065300
                          8       1    1py               0.084874       0.065300
                          8       1    1pz               0.084874       0.065300

                          9       1    1px               0.025704       0.014670
                          9       1    1py               0.025704       0.014670
                          9       1    1pz               0.025704       0.014670

                         10       1    1dx2              1.400000       2.965743
                         10       1    1dxy              1.400000       5.136818
                         10       1    1dxz              1.400000       5.136818
                         10       1    1dy2              1.400000       2.965743
                         10       1    1dyz              1.400000       5.136818
                         10       1    1dz2              1.400000       2.965743

                         11       1    1dx2              0.450000       0.406941
                         11       1    1dxy              0.450000       0.704842
                         11       1    1dxz              0.450000       0.704842
                         11       1    1dy2              0.450000       0.406941
                         11       1    1dyz              0.450000       0.704842
                         11       1    1dz2              0.450000       0.406941

                         12       1    1dx2              0.077111       0.018572
                         12       1    1dxy              0.077111       0.032168
                         12       1    1dxz              0.077111       0.032168
                         12       1    1dy2              0.077111       0.018572
                         12       1    1dyz              0.077111       0.032168
                         12       1    1dz2              0.077111       0.018572

                         13       1    1fx3              0.950000       1.311694
                         13       1    1fx2y             0.950000       2.933037
                         13       1    1fx2z             0.950000       2.933037
                         13       1    1fxy2             0.950000       2.933037
                         13       1    1fxyz             0.950000       5.080169
                         13       1    1fxz2             0.950000       2.933037
                         13       1    1fy3              0.950000       1.311694
                         13       1    1fy2z             0.950000       2.933037
                         13       1    1fyz2             0.950000       2.933037
                         13       1    1fz3              0.950000       1.311694

                         14       1    1fx3              0.102810       0.008811
                         14       1    1fx2y             0.102810       0.019702
                         14       1    1fx2z             0.102810       0.019702
                         14       1    1fxy2             0.102810       0.019702
                         14       1    1fxyz             0.102810       0.034126
                         14       1    1fxz2             0.102810       0.019702
                         14       1    1fy3              0.102810       0.008811
                         14       1    1fy2z             0.102810       0.019702
                         14       1    1fyz2             0.102810       0.019702
                         14       1    1fz3              0.102810       0.008811

     Auxiliary Fit Basis Set                                          aug-admm-2

       Number of orbital shell sets:                                           3
       Number of orbital shells:                                              10
       Number of primitive Cartesian functions:                               12
       Number of Cartesian basis functions:                                   26
       Number of spherical basis functions:                                   24
       Norm type:                                                              2

       Normalised Cartesian orbitals:

                        Set   Shell   Orbital            Exponent    Coefficient

                          1       1    1s              109.016000       4.923462
                                                        18.264600       5.452682
                                                         4.347920       0.000000
                                                         0.481253       0.000000
                                                         0.143588       0.000000
                                                         0.040429       0.000000

                          1       2    2s              109.016000       0.000000
                                                        18.264600       0.000000
                                                         4.347920       2.145958
                                                         0.481253       0.000000
                                                         0.143588       0.000000
                                                         0.040429       0.000000

                          1       3    3s              109.016000       0.000000
                                                        18.264600       0.000000
                                                         4.347920       0.000000
                                                         0.481253       0.411804
                                                         0.143588       0.000000
                                                         0.040429       0.000000

                          1       4    4s              109.016000       0.000000
                                                        18.264600       0.000000
                                                         4.347920       0.000000
                                                         0.481253       0.000000
                                                         0.143588       0.166245
                                                         0.040429       0.000000

                          1       5    5s              109.016000       0.000000
                                                        18.264600       0.000000
                                                         4.347920       0.000000
                                                         0.481253       0.000000
                                                         0.143588       0.000000
                                                         0.040429       0.064258

                          2       1    1px               2.823390       1.538017
                                                         0.590232       0.604745
                                                         0.152426       0.000000
                                                         0.038107       0.000000
                          2       1    1py               2.823390       1.538017
                                                         0.590232       0.604745
                                                         0.152426       0.000000
                                                         0.038107       0.000000
                          2       1    1pz               2.823390       1.538017
                                                         0.590232       0.604745
                                                         0.152426       0.000000
                                                         0.038107       0.000000

                          2       2    2px               2.823390       0.000000
                                                         0.590232       0.000000
                                                         0.152426       0.135758
                                                         0.038107       0.000000
                          2       2    2py               2.823390       0.000000
                                                         0.590232       0.000000
                                                         0.152426       0.135758
                                                         0.038107       0.000000
                          2       2    2pz               2.823390       0.000000
                                                         0.590232       0.000000
                                                         0.152426       0.135758
                                                         0.038107       0.000000

                          2       3    3px               2.823390       0.000000
                                                         0.590232       0.000000
                                                         0.152426       0.000000
                                                         0.038107       0.023999
                          2       3    3py               2.823390       0.000000
                                                         0.590232       0.000000
                                                         0.152426       0.000000
                                                         0.038107       0.023999
                          2       3    3pz               2.823390       0.000000
                                                         0.590232       0.000000
                                                         0.152426       0.000000
                                                         0.038107       0.023999

                          3       1    1dx2              0.800000       1.113825
                                                         0.114320       0.000000
                          3       1    1dxy              0.800000       1.929201
                                                         0.114320       0.000000
                          3       1    1dxz              0.800000       1.929201
                                                         0.114320       0.000000
                          3       1    1dy2              0.800000       1.113825
                                                         0.114320       0.000000
                          3       1    1dyz              0.800000       1.929201
                                                         0.114320       0.000000
                          3       1    1dz2              0.800000       1.113825
                                                         0.114320       0.000000

                          3       2    2dx2              0.800000       0.000000
                                                         0.114320       0.036993
                          3       2    2dxy              0.800000       0.000000
                                                         0.114320       0.064074
                          3       2    2dxz              0.800000       0.000000
                                                         0.114320       0.064074
                          3       2    2dy2              0.800000       0.000000
                                                         0.114320       0.036993
                          3       2    2dyz              0.800000       0.000000
                                                         0.114320       0.064074
                          3       2    2dz2              0.800000       0.000000
                                                         0.114320       0.036993

       Atomic covalent radius [Angstrom]:                                  0.770

       Atomic van der Waals radius [Angstrom]:                             1.700

     The atoms of this atomic kind are PAW atoms (GAPW):
       Hard Gaussian function radius:                                      1.512
       Rho0 radius:                                                        1.512
       Maximum GTO radius used for PAW projector construction:            24.566

     GAPW Soft Basis Set                                        aug-pcseg-2_soft

       Number of orbital shell sets:                                          14
       Number of orbital shells:                                              14
       Number of primitive Cartesian functions:                               15
       Number of Cartesian basis functions:                                   55
       Number of spherical basis functions:                                   46
       Norm type:                                                              2

       Normalised Cartesian orbitals:

                        Set   Shell   Orbital            Exponent    Coefficient

                          1       1    1s                2.893090       0.510144

                          2       1    1s                0.556124       0.494060

                          3       1    1s                0.228813       0.235787

                          4       1    1s                0.093634       0.120638

                          5       1    1s                0.035418       0.058187

                          6       1    1px               2.249540       1.244013
                                                         0.767681       0.729116
                          6       1    1py               2.249540       1.244013
                                                         0.767681       0.729116
                          6       1    1pz               2.249540       1.244013
                                                         0.767681       0.729116

                          7       1    1px               0.263283       0.268824
                          7       1    1py               0.263283       0.268824
                          7       1    1pz               0.263283       0.268824

                          8       1    1px               0.084874       0.065300
                          8       1    1py               0.084874       0.065300
                          8       1    1pz               0.084874       0.065300

                          9       1    1px               0.025704       0.014670
                          9       1    1py               0.025704       0.014670
                          9       1    1pz               0.025704       0.014670

                         10       1    1dx2              1.400000       2.965743
                         10       1    1dxy              1.400000       5.136818
                         10       1    1dxz              1.400000       5.136818
                         10       1    1dy2              1.400000       2.965743
                         10       1    1dyz              1.400000       5.136818
                         10       1    1dz2              1.400000       2.965743

                         11       1    1dx2              0.450000       0.406941
                         11       1    1dxy              0.450000       0.704842
                         11       1    1dxz              0.450000       0.704842
                         11       1    1dy2              0.450000       0.406941
                         11       1    1dyz              0.450000       0.704842
                         11       1    1dz2              0.450000       0.406941

                         12       1    1dx2              0.077111       0.018572
                         12       1    1dxy              0.077111       0.032168
                         12       1    1dxz              0.077111       0.032168
                         12       1    1dy2              0.077111       0.018572
                         12       1    1dyz              0.077111       0.032168
                         12       1    1dz2              0.077111       0.018572

                         13       1    1fx3              0.950000       1.311694
                         13       1    1fx2y             0.950000       2.933037
                         13       1    1fx2z             0.950000       2.933037
                         13       1    1fxy2             0.950000       2.933037
                         13       1    1fxyz             0.950000       5.080169
                         13       1    1fxz2             0.950000       2.933037
                         13       1    1fy3              0.950000       1.311694
                         13       1    1fy2z             0.950000       2.933037
                         13       1    1fyz2             0.950000       2.933037
                         13       1    1fz3              0.950000       1.311694

                         14       1    1fx3              0.102810       0.008811
                         14       1    1fx2y             0.102810       0.019702
                         14       1    1fx2z             0.102810       0.019702
                         14       1    1fxy2             0.102810       0.019702
                         14       1    1fxyz             0.102810       0.034126
                         14       1    1fxz2             0.102810       0.019702
                         14       1    1fy3              0.102810       0.008811
                         14       1    1fy2z             0.102810       0.019702
                         14       1    1fyz2             0.102810       0.019702
                         14       1    1fz3              0.102810       0.008811

     AE Potential information for                                            ALL

       Description:                                       All-electron potential
                                          Krack, Parrinello, PCCP 2, 2105 (2000)

       Gaussian exponent of the core charge distribution:               4.109048
       Electronic configuration (s p d ...):                           4   2   0


 MOLECULE KIND INFORMATION


 All atoms are their own molecule, skipping detailed information


 TOTAL NUMBERS AND MAXIMUM NUMBERS

  Total number of            - Atomic kinds:                                   2
                             - Atoms:                                        112
                             - Shell sets:                                   125
                             - Shells:                                       569
                             - Primitive Cartesian functions:                579
                             - Cartesian basis functions:                   1609
                             - Spherical basis functions:                   1489

  Maximum angular momentum of- Orbital basis functions:                        3
                             - Local part of the GTH pseudopotential:          2
                             - Non-local part of the GTH pseudopotential:      0

  AUX_FIT ADMM-Basis: 
  Total number of            - Shell sets:                                   669
                             - Shells:                                       676
                             - Primitive Cartesian functions:                678
                             - Cartesian basis functions:                   1358
                             - Spherical basis functions:                   1356
                               Maximum angular momentum                        2


 MODULE QUICKSTEP: ATOMIC COORDINATES IN ANGSTROM

   Atom Kind Element         X             Y             Z       Z(eff)     Mass
      1    1 C     6      8.596536     14.935599      0.002123   4.0000  12.0107
      2    1 C     6      9.825007     15.620527      0.002049   4.0000  12.0107
      3    1 C     6     11.052626     14.935721      0.001913   4.0000  12.0107
      4    1 C     6     12.280910     15.620683      0.001141   4.0000  12.0107
      5    1 C     6     13.508265     14.935679      0.001340   4.0000  12.0107
      6    1 C     6     14.736699     15.620313      0.000260   4.0000  12.0107
      7    1 C     6     15.964028     14.935183      0.000831   4.0000  12.0107
      8    1 C     6     17.192465     15.620095      0.000113   4.0000  12.0107
      9    1 C     6     18.420061     14.935277      0.000496   4.0000  12.0107
     10    2 C     6     19.648279     15.620658      0.000488   6.0000  12.0107
     11    1 C     6     20.876149     14.936265      0.001049   4.0000  12.0107
     12    1 C     6     22.104455     15.621525      0.001359   4.0000  12.0107
     13    1 C     6     23.332262     14.937019      0.001779   4.0000  12.0107
     14    1 C     6     24.560937     15.621660      0.001561   4.0000  12.0107
     15    1 C     6     25.788360     14.936487      0.001836   4.0000  12.0107
     16    1 C     6     27.017177     15.620968      0.002770   4.0000  12.0107
     17    1 C     6     25.786765     13.489998      0.002037   4.0000  12.0107
     18    1 C     6     23.330563     13.490318      0.001997   4.0000  12.0107
     19    1 C     6     20.874268     13.489855      0.001596   4.0000  12.0107
     20    1 C     6     18.418221     13.489200      0.001466   4.0000  12.0107
     21    1 C     6     15.962407     13.488915      0.002075   4.0000  12.0107
     22    1 C     6     14.733729     12.779485      0.002547   4.0000  12.0107
     23    1 C     6     13.506437     13.489005      0.002565   4.0000  12.0107
     24    1 C     6     12.277769     12.779453      0.002791   4.0000  12.0107
     25    1 C     6     11.050399     13.489114      0.002593   4.0000  12.0107
     26    1 C     6      9.821799     12.780036      0.002740   4.0000  12.0107
     27    1 C     6      8.594613     13.489562      0.002314   4.0000  12.0107
     28    1 C     6      7.366076     12.780661      0.002196   4.0000  12.0107
     29    1 C     6     24.557944     12.780778      0.002082   4.0000  12.0107
     30    1 C     6     22.101855     12.780676      0.002287   4.0000  12.0107
     31    1 C     6     19.645742     12.780415      0.001861   4.0000  12.0107
     32    1 C     6     17.189710     12.779921      0.002045   4.0000  12.0107
     33    1 C     6     24.556346     11.346759      0.001821   4.0000  12.0107
     34    1 C     6     23.328005     10.635042      0.002463   4.0000  12.0107
     35    1 C     6     22.100495     11.346704      0.003141   4.0000  12.0107
     36    1 C     6     20.871874     10.634690      0.003769   4.0000  12.0107
     37    1 C     6     19.644487     11.346344      0.002996   4.0000  12.0107
     38    1 C     6     18.415839     10.634050      0.003579   4.0000  12.0107
     39    1 C     6     17.188193     11.345768      0.003024   4.0000  12.0107
     40    1 C     6     15.959759     10.633666      0.002880   4.0000  12.0107
     41    1 C     6     14.732094     11.345404      0.002250   4.0000  12.0107
     42    1 C     6     13.503636     10.633500     -0.000516   4.0000  12.0107
     43    1 C     6     12.276429     11.345429      0.000619   4.0000  12.0107
     44    1 C     6     11.047801     10.633604     -0.003700   4.0000  12.0107
     45    1 C     6      9.820671     11.345833     -0.000115   4.0000  12.0107
     46    1 C     6      8.591939     10.633848     -0.004241   4.0000  12.0107
     47    1 C     6      7.364512     11.346458     -0.000113   4.0000  12.0107
     48    1 C     6      6.136045     10.634803     -0.001352   4.0000  12.0107
     49    1 C     6      6.134616      9.203821     -0.012813   4.0000  12.0107
     50    1 C     6      7.361614      8.490884     -0.032666   4.0000  12.0107
     51    1 C     6      8.590198      9.203525     -0.023144   4.0000  12.0107
     52    1 C     6      9.817158      8.489883     -0.040287   4.0000  12.0107
     53    1 C     6     11.045865      9.202432     -0.021829   4.0000  12.0107
     54    1 C     6     12.273013      8.488912     -0.029570   4.0000  12.0107
     55    1 C     6     13.501899      9.202323     -0.010517   4.0000  12.0107
     56    1 C     6     14.729170      8.489749     -0.009052   4.0000  12.0107
     57    1 C     6     15.958184      9.202816      0.001110   4.0000  12.0107
     58    1 C     6     17.185266      8.490141      0.003778   4.0000  12.0107
     59    1 C     6     18.414018      9.203236      0.005250   4.0000  12.0107
     60    1 C     6     19.641385      8.490611      0.006193   4.0000  12.0107
     61    1 C     6     20.869988      9.203761      0.004727   4.0000  12.0107
     62    1 C     6     22.097460      8.491016      0.001974   4.0000  12.0107
     63    1 C     6     23.326374      9.203968     -0.000502   4.0000  12.0107
     64    1 C     6     22.094907      7.059797     -0.004088   4.0000  12.0107
     65    1 C     6     20.866145      6.346906      0.001454   4.0000  12.0107
     66    1 C     6     19.638875      7.059075      0.007392   4.0000  12.0107
     67    1 C     6     18.410058      6.345900      0.006014   4.0000  12.0107
     68    1 C     6     17.182474      7.058556      0.001777   4.0000  12.0107
     69    1 C     6     15.953952      6.345826     -0.015136   4.0000  12.0107
     70    1 C     6     14.726290      7.058517     -0.025689   4.0000  12.0107
     71    1 C     6     13.498147      6.346525     -0.063418   4.0000  12.0107
     72    1 C     6     12.270051      7.057627     -0.065617   4.0000  12.0107
     73    1 C     6     11.040859      6.345686     -0.102351   4.0000  12.0107
     74    1 C     6      9.814604      7.059139     -0.084203   4.0000  12.0107
     75    1 C     6      8.585787      6.346800     -0.108438   4.0000  12.0107
     76    1 C     6      7.358631      7.060053     -0.072747   4.0000  12.0107
     77    1 C     6      6.130416      6.348249     -0.075903   4.0000  12.0107
     78    1 C     6      4.902975      7.059813     -0.035344   4.0000  12.0107
     79    1 C     6      4.905618      8.490920     -0.012707   4.0000  12.0107
     80    1 C     6      3.674012      6.348336     -0.028056   4.0000  12.0107
     81    1 C     6      3.672693      4.914723     -0.058624   4.0000  12.0107
     82    1 C     6      4.900009      4.206739     -0.116191   4.0000  12.0107
     83    1 C     6      6.129044      4.914470     -0.125571   4.0000  12.0107
     84    1 C     6      7.356703      4.207053     -0.187408   4.0000  12.0107
     85    1 C     6      8.584147      4.915258     -0.171176   4.0000  12.0107
     86    1 C     6      9.809094      4.202845     -0.204686   4.0000  12.0107
     87    1 C     6     11.039546      4.910974     -0.158296   4.0000  12.0107
     88    1 C     6     12.269528      4.205030     -0.158831   4.0000  12.0107
     89    1 C     6     13.498233      4.912928     -0.100521   4.0000  12.0107
     90    1 C     6     14.725277      4.202473     -0.079669   4.0000  12.0107
     91    1 C     6     15.953637      4.911602     -0.032177   4.0000  12.0107
     92    1 C     6     17.181122      4.202247     -0.015114   4.0000  12.0107
     93    1 C     6     18.409382      4.911678      0.002520   4.0000  12.0107
     94    1 C     6     19.637675      4.202608     -0.001289   4.0000  12.0107
     95    1 C     6     20.865143      4.912699     -0.007623   4.0000  12.0107
     96    1 C     6     19.636657      2.756397     -0.012767   4.0000  12.0107
     97    1 C     6     18.408355      2.072058     -0.018696   4.0000  12.0107
     98    1 C     6     17.180786      2.756208     -0.031555   4.0000  12.0107
     99    1 C     6     15.952994      2.072010     -0.079464   4.0000  12.0107
    100    1 C     6     14.726873      2.756501     -0.111266   4.0000  12.0107
    101    1 C     6     13.498254      2.074336     -0.180207   4.0000  12.0107
    102    1 C     6     12.275302      2.761272     -0.208022   4.0000  12.0107
    103    1 C     6     11.044520      2.079364     -0.278198   4.0000  12.0107
    104    1 C     6      9.818477      2.758790     -0.280477   4.0000  12.0107
    105    1 C     6      8.576222      2.077270     -0.343001   4.0000  12.0107
    106    1 C     6      6.121377      2.077459     -0.262339   4.0000  12.0107
    107    1 C     6      7.342074      2.766543     -0.268963   4.0000  12.0107
    108    1 C     6      4.895646      2.763527     -0.173197   4.0000  12.0107
    109    1 C     6      3.671345      2.075586     -0.139793   4.0000  12.0107
    110    1 C     6      2.443457      2.757989     -0.070212   4.0000  12.0107
    111    1 C     6      2.445527      4.203991     -0.041461   4.0000  12.0107
    112    1 C     6      1.216612      2.072462     -0.041781   4.0000  12.0107


 REQUESTED STRUCTURE DATA


 SCF PARAMETERS         Density guess:                                    ATOMIC
                        --------------------------------------------------------
                        max_scf:                                             100
                        max_scf_history:                                       0
                        max_diis:                                              4
                        --------------------------------------------------------
                        eps_scf:                                        1.00E-07
                        eps_scf_history:                                0.00E+00
                        eps_diis:                                       1.00E-01
                        eps_eigval:                                     1.00E-05
                        --------------------------------------------------------
                        level_shift [a.u.]:                             0.000000
                        --------------------------------------------------------
                        Outer loop SCF in use 
                        No variables optimised in outer loop
                        eps_scf                                         1.00E-07
                        max_scf                                               40
                        No outer loop optimization
                        step_size                                       5.00E-01

 PW_GRID| Information for grid number                                          1
 PW_GRID| Grid distributed over                                    16 processors
 PW_GRID| Real space group dimensions                                    16    1
 PW_GRID| the grid is blocked:                                                NO
 PW_GRID| Cutoff [a.u.]                                                    300.0
 PW_GRID| spherical cutoff:                                                   NO
 PW_GRID|   Bounds   1           -150     149                Points:         300
 PW_GRID|   Bounds   2           -300     299                Points:         600
 PW_GRID|   Bounds   3           -150     149                Points:         300
 PW_GRID| Volume element (a.u.^3)  0.1701E-02     Volume (a.u.^3)     91861.9320
 PW_GRID| Grid span                                                    FULLSPACE
 PW_GRID|   Distribution                         Average         Max         Min
 PW_GRID|   G-Vectors                          3375000.0     3375000     3375000
 PW_GRID|   G-Rays                               11250.0       11250       11250
 PW_GRID|   Real Space Points                  3375000.0     3420000     3240000

 PW_GRID| Information for grid number                                          2
 PW_GRID| Number of the reference grid                                         1
 PW_GRID| Grid distributed over                                    16 processors
 PW_GRID| Real space group dimensions                                    16    1
 PW_GRID| the grid is blocked:                                                NO
 PW_GRID| Cutoff [a.u.]                                                    100.0
 PW_GRID| spherical cutoff:                                                   NO
 PW_GRID|   Bounds   1            -90      89                Points:         180
 PW_GRID|   Bounds   2           -180     179                Points:         360
 PW_GRID|   Bounds   3            -90      89                Points:         180
 PW_GRID| Volume element (a.u.^3)  0.7876E-02     Volume (a.u.^3)     91861.9320
 PW_GRID| Grid span                                                    FULLSPACE
 PW_GRID|   Distribution                         Average         Max         Min
 PW_GRID|   G-Vectors                           729000.0      729360      728640
 PW_GRID|   G-Rays                                4050.0        4052        4048
 PW_GRID|   Real Space Points                   729000.0      777600      712800

 PW_GRID| Information for grid number                                          3
 PW_GRID| Number of the reference grid                                         1
 PW_GRID| Grid distributed over                                    16 processors
 PW_GRID| Real space group dimensions                                    16    1
 PW_GRID| the grid is blocked:                                                NO
 PW_GRID| Cutoff [a.u.]                                                     33.3
 PW_GRID| spherical cutoff:                                                   NO
 PW_GRID|   Bounds   1            -50      49                Points:         100
 PW_GRID|   Bounds   2           -100      99                Points:         200
 PW_GRID|   Bounds   3            -50      49                Points:         100
 PW_GRID| Volume element (a.u.^3)  0.4593E-01     Volume (a.u.^3)     91861.9320
 PW_GRID| Grid span                                                    FULLSPACE
 PW_GRID|   Distribution                         Average         Max         Min
 PW_GRID|   G-Vectors                           125000.0      125400      124700
 PW_GRID|   G-Rays                                1250.0        1254        1247
 PW_GRID|   Real Space Points                   125000.0      140000      120000

 PW_GRID| Information for grid number                                          4
 PW_GRID| Number of the reference grid                                         1
 PW_GRID| Grid distributed over                                    16 processors
 PW_GRID| Real space group dimensions                                    16    1
 PW_GRID| the grid is blocked:                                                NO
[...]
    47 OT CG       0.39E-05  146.3     0.00000324      -666.5055183361  3.52E-09

  Trace(PS):                                  449.9999989393
  Electronic density on regular grids:       -444.3559562482        5.6440437518
  Core density on regular grids:              450.0000000000        0.0000000000
  Hard and soft densities (Lebedev):        -1545.2796312684    -1539.6355327109
  Total Rho_soft + Rho1_hard - Rho1_soft     -450.0000548056
  Total charge density (r-space):              -0.0000548056
  Total Rho_soft + Rho0_soft (g-space):        -0.0000592472

  Wfn fit exchange-correlation energy:                            82.1925189654
  Wfn fit soft/hard atomic rho1 Exc contribution:                 -2.3741040037

  Core Hamiltonian energy:                                        449.3727289265
  Hartree energy:                                                 889.5933786834
  Exchange-correlation energy:                                   -108.2355888279

  GAPW| Exc from hard and soft atomic rho1:                        -8.7099764182
  GAPW| local Eh = 1 center integrals:                           -300.4015032113
        Maximum deviation from MO S-orthonormality                    0.6334E-04
        Minimum/Maximum MO magnitude              0.3306E+00          0.1078E+01
    48 OT LS       0.79E-05  126.9                     -666.5055183326

  Trace(PS):                                  449.9999989390
  Electronic density on regular grids:       -444.3559562478        5.6440437522
  Core density on regular grids:              450.0000000000        0.0000000000
  Hard and soft densities (Lebedev):        -1545.2796312801    -1539.6355327226
  Total Rho_soft + Rho1_hard - Rho1_soft     -450.0000548053
  Total charge density (r-space):              -0.0000548053
  Total Rho_soft + Rho0_soft (g-space):        -0.0000592469

  Wfn fit exchange-correlation energy:                            82.1925189650
  Wfn fit soft/hard atomic rho1 Exc contribution:                 -2.3741040034

  Core Hamiltonian energy:                                        449.3727289248
  Hartree energy:                                                 889.5933786884
  Exchange-correlation energy:                                   -108.2355888273

  GAPW| Exc from hard and soft atomic rho1:                        -8.7099764186
  GAPW| local Eh = 1 center integrals:                           -300.4015032116
        Maximum deviation from MO S-orthonormality                    0.6335E-04
        Minimum/Maximum MO magnitude              0.3306E+00          0.1078E+01
    49 OT CG       0.79E-05  146.4     0.00000324      -666.5055183291  7.03E-09

  Trace(PS):                                  449.9999989383
  Electronic density on regular grids:       -444.3559562470        5.6440437530
  Core density on regular grids:              450.0000000000        0.0000000000
  Hard and soft densities (Lebedev):        -1545.2796313035    -1539.6355327458
  Total Rho_soft + Rho1_hard - Rho1_soft     -450.0000548046
  Total charge density (r-space):              -0.0000548046
  Total Rho_soft + Rho0_soft (g-space):        -0.0000592462

  Wfn fit exchange-correlation energy:                            82.1925189641
  Wfn fit soft/hard atomic rho1 Exc contribution:                 -2.3741040029

  Core Hamiltonian energy:                                        449.3727289214
  Hartree energy:                                                 889.5933786983
  Exchange-correlation energy:                                   -108.2355888261

  GAPW| Exc from hard and soft atomic rho1:                        -8.7099764194
  GAPW| local Eh = 1 center integrals:                           -300.4015032121
        Maximum deviation from MO S-orthonormality                    0.6336E-04
        Minimum/Maximum MO magnitude              0.3306E+00          0.1078E+01
    50 OT LS       0.79E-07  127.5                     -666.5055183221

  Trace(PS):                                  449.9999989390
  Electronic density on regular grids:       -444.3559562478        5.6440437522
  Core density on regular grids:              450.0000000000        0.0000000000
  Hard and soft densities (Lebedev):        -1545.2796312803    -1539.6355327228
  Total Rho_soft + Rho1_hard - Rho1_soft     -450.0000548053
  Total charge density (r-space):              -0.0000548053
  Total Rho_soft + Rho0_soft (g-space):        -0.0000592469

  Wfn fit exchange-correlation energy:                            82.1925189649
  Wfn fit soft/hard atomic rho1 Exc contribution:                 -2.3741040034

  Core Hamiltonian energy:                                        449.3727289248
  Hartree energy:                                                 889.5933786885
  Exchange-correlation energy:                                   -108.2355888273

  GAPW| Exc from hard and soft atomic rho1:                        -8.7099764186
  GAPW| local Eh = 1 center integrals:                           -300.4015032116
        Maximum deviation from MO S-orthonormality                    0.6335E-04
        Minimum/Maximum MO magnitude              0.3306E+00          0.1078E+01
    51 OT CG       0.79E-07  146.8     0.00000324      -666.5055183290  7.08E-11

  Trace(PS):                                  449.9999989390
  Electronic density on regular grids:       -444.3559562478        5.6440437522
  Core density on regular grids:              450.0000000000        0.0000000000
  Hard and soft densities (Lebedev):        -1545.2796312805    -1539.6355327230
  Total Rho_soft + Rho1_hard - Rho1_soft     -450.0000548053
  Total charge density (r-space):              -0.0000548053
  Total Rho_soft + Rho0_soft (g-space):        -0.0000592469

  Wfn fit exchange-correlation energy:                            82.1925189649
  Wfn fit soft/hard atomic rho1 Exc contribution:                 -2.3741040034

  Core Hamiltonian energy:                                        449.3727289248
  Hartree energy:                                                 889.5933786886
  Exchange-correlation energy:                                   -108.2355888273

  GAPW| Exc from hard and soft atomic rho1:                        -8.7099764186
  GAPW| local Eh = 1 center integrals:                           -300.4015032116
        Maximum deviation from MO S-orthonormality                    0.6335E-04
        Minimum/Maximum MO magnitude              0.3306E+00          0.1078E+01
    52 OT LS       0.16E-06  127.0                     -666.5055183290

  Trace(PS):                                  449.9999989390
  Electronic density on regular grids:       -444.3559562478        5.6440437522
  Core density on regular grids:              450.0000000000        0.0000000000
  Hard and soft densities (Lebedev):        -1545.2796312808    -1539.6355327233
  Total Rho_soft + Rho1_hard - Rho1_soft     -450.0000548053
  Total charge density (r-space):              -0.0000548053
  Total Rho_soft + Rho0_soft (g-space):        -0.0000592469

  Wfn fit exchange-correlation energy:                            82.1925189649
  Wfn fit soft/hard atomic rho1 Exc contribution:                 -2.3741040034

  Core Hamiltonian energy:                                        449.3727289247
  Hartree energy:                                                 889.5933786887
  Exchange-correlation energy:                                   -108.2355888273

  GAPW| Exc from hard and soft atomic rho1:                        -8.7099764186
  GAPW| local Eh = 1 center integrals:                           -300.4015032116
        Maximum deviation from MO S-orthonormality                    0.6335E-04
        Minimum/Maximum MO magnitude              0.3306E+00          0.1078E+01
    53 OT CG       0.16E-06  146.3     0.00000324      -666.5055183289  1.40E-10

  Trace(PS):                                  449.9999989390
  Electronic density on regular grids:       -444.3559562478        5.6440437522
  Core density on regular grids:              450.0000000000        0.0000000000
  Hard and soft densities (Lebedev):        -1545.2796312812    -1539.6355327237
  Total Rho_soft + Rho1_hard - Rho1_soft     -450.0000548053
  Total charge density (r-space):              -0.0000548053
  Total Rho_soft + Rho0_soft (g-space):        -0.0000592469

  Wfn fit exchange-correlation energy:                            82.1925189649
  Wfn fit soft/hard atomic rho1 Exc contribution:                 -2.3741040034

  Core Hamiltonian energy:                                        449.3727289247
  Hartree energy:                                                 889.5933786888
  Exchange-correlation energy:                                   -108.2355888272

  GAPW| Exc from hard and soft atomic rho1:                        -8.7099764186
  GAPW| local Eh = 1 center integrals:                           -300.4015032116
        Maximum deviation from MO S-orthonormality                    0.6335E-04
        Minimum/Maximum MO magnitude              0.3306E+00          0.1078E+01
    54 OT LS       0.31E-06  127.0                     -666.5055183287

  Trace(PS):                                  449.9999989390
  Electronic density on regular grids:       -444.3559562477        5.6440437523
  Core density on regular grids:              450.0000000000        0.0000000000
  Hard and soft densities (Lebedev):        -1545.2796312817    -1539.6355327242
  Total Rho_soft + Rho1_hard - Rho1_soft     -450.0000548052
  Total charge density (r-space):              -0.0000548052
  Total Rho_soft + Rho0_soft (g-space):        -0.0000592469

  Wfn fit exchange-correlation energy:                            82.1925189649
  Wfn fit soft/hard atomic rho1 Exc contribution:                 -2.3741040034

  Core Hamiltonian energy:                                        449.3727289246
  Hartree energy:                                                 889.5933786890
  Exchange-correlation energy:                                   -108.2355888272

  GAPW| Exc from hard and soft atomic rho1:                        -8.7099764186
  GAPW| local Eh = 1 center integrals:                           -300.4015032116
        Maximum deviation from MO S-orthonormality                    0.6335E-04
        Minimum/Maximum MO magnitude              0.3306E+00          0.1078E+01
    55 OT CG       0.31E-06  146.5     0.00000324      -666.5055183286  2.82E-10

  Trace(PS):                                  449.9999989389
  Electronic density on regular grids:       -444.3559562477        5.6440437523
  Core density on regular grids:              450.0000000000        0.0000000000
  Hard and soft densities (Lebedev):        -1545.2796312826    -1539.6355327251
  Total Rho_soft + Rho1_hard - Rho1_soft     -450.0000548052
  Total charge density (r-space):              -0.0000548052
  Total Rho_soft + Rho0_soft (g-space):        -0.0000592468

  Wfn fit exchange-correlation energy:                            82.1925189649
  Wfn fit soft/hard atomic rho1 Exc contribution:                 -2.3741040034

  Core Hamiltonian energy:                                        449.3727289245
  Hartree energy:                                                 889.5933786894
  Exchange-correlation energy:                                   -108.2355888272

  GAPW| Exc from hard and soft atomic rho1:                        -8.7099764187
  GAPW| local Eh = 1 center integrals:                           -300.4015032116
        Maximum deviation from MO S-orthonormality                    0.6335E-04
        Minimum/Maximum MO magnitude              0.3306E+00          0.1078E+01
    56 OT LS       0.63E-06  127.1                     -666.5055183283

  Trace(PS):                                  449.9999989389
  Electronic density on regular grids:       -444.3559562477        5.6440437523
  Core density on regular grids:              450.0000000000        0.0000000000
  Hard and soft densities (Lebedev):        -1545.2796312836    -1539.6355327261
  Total Rho_soft + Rho1_hard - Rho1_soft     -450.0000548052
  Total charge density (r-space):              -0.0000548052
  Total Rho_soft + Rho0_soft (g-space):        -0.0000592468

  Wfn fit exchange-correlation energy:                            82.1925189648
  Wfn fit soft/hard atomic rho1 Exc contribution:                 -2.3741040034

  Core Hamiltonian energy:                                        449.3727289243
  Hartree energy:                                                 889.5933786898
  Exchange-correlation energy:                                   -108.2355888271

  GAPW| Exc from hard and soft atomic rho1:                        -8.7099764187
  GAPW| local Eh = 1 center integrals:                           -300.4015032116
        Maximum deviation from MO S-orthonormality                    0.6335E-04
        Minimum/Maximum MO magnitude              0.3306E+00          0.1078E+01
    57 OT CG       0.63E-06  146.2     0.00000324      -666.5055183280  5.62E-10

  Trace(PS):                                  449.9999989389
  Electronic density on regular grids:       -444.3559562476        5.6440437524
  Core density on regular grids:              450.0000000000        0.0000000000
  Hard and soft densities (Lebedev):        -1545.2796312854    -1539.6355327279
  Total Rho_soft + Rho1_hard - Rho1_soft     -450.0000548051
  Total charge density (r-space):              -0.0000548051
  Total Rho_soft + Rho0_soft (g-space):        -0.0000592468

  Wfn fit exchange-correlation energy:                            82.1925189648
  Wfn fit soft/hard atomic rho1 Exc contribution:                 -2.3741040033

  Core Hamiltonian energy:                                        449.3727289240
  Hartree energy:                                                 889.5933786906
  Exchange-correlation energy:                                   -108.2355888270

  GAPW| Exc from hard and soft atomic rho1:                        -8.7099764188
  GAPW| local Eh = 1 center integrals:                           -300.4015032117
        Maximum deviation from MO S-orthonormality                    0.6335E-04
        Minimum/Maximum MO magnitude              0.3306E+00          0.1078E+01
    58 OT LS       0.13E-05  126.9                     -666.5055183275

  Trace(PS):                                  449.9999989388
  Electronic density on regular grids:       -444.3559562475        5.6440437525
  Core density on regular grids:              450.0000000000        0.0000000000
  Hard and soft densities (Lebedev):        -1545.2796312873    -1539.6355327298
  Total Rho_soft + Rho1_hard - Rho1_soft     -450.0000548051
  Total charge density (r-space):              -0.0000548051
  Total Rho_soft + Rho0_soft (g-space):        -0.0000592467

  Wfn fit exchange-correlation energy:                            82.1925189647
  Wfn fit soft/hard atomic rho1 Exc contribution:                 -2.3741040033

  Core Hamiltonian energy:                                        449.3727289238
  Hartree energy:                                                 889.5933786914
  Exchange-correlation energy:                                   -108.2355888269

  GAPW| Exc from hard and soft atomic rho1:                        -8.7099764188
  GAPW| local Eh = 1 center integrals:                           -300.4015032117
        Maximum deviation from MO S-orthonormality                    0.6335E-04
        Minimum/Maximum MO magnitude              0.3306E+00          0.1078E+01
    59 OT CG       0.13E-05  146.3     0.00000324      -666.5055183269  1.13E-09

  Trace(PS):                                  449.9999989387
  Electronic density on regular grids:       -444.3559562474        5.6440437526
  Core density on regular grids:              450.0000000000        0.0000000000
  Hard and soft densities (Lebedev):        -1545.2796312911    -1539.6355327335
  Total Rho_soft + Rho1_hard - Rho1_soft     -450.0000548050
  Total charge density (r-space):              -0.0000548050
  Total Rho_soft + Rho0_soft (g-space):        -0.0000592466

  Wfn fit exchange-correlation energy:                            82.1925189646
  Wfn fit soft/hard atomic rho1 Exc contribution:                 -2.3741040032

  Core Hamiltonian energy:                                        449.3727289232
  Hartree energy:                                                 889.5933786930
  Exchange-correlation energy:                                   -108.2355888267

  GAPW| Exc from hard and soft atomic rho1:                        -8.7099764190
  GAPW| local Eh = 1 center integrals:                           -300.4015032118
        Maximum deviation from MO S-orthonormality                    0.6335E-04
        Minimum/Maximum MO magnitude              0.3306E+00          0.1078E+01
    60 OT LS       0.25E-05  127.1                     -666.5055183258

  Trace(PS):                                  449.9999989386
  Electronic density on regular grids:       -444.3559562473        5.6440437527
  Core density on regular grids:              450.0000000000        0.0000000000
  Hard and soft densities (Lebedev):        -1545.2796312948    -1539.6355327372
  Total Rho_soft + Rho1_hard - Rho1_soft     -450.0000548049
  Total charge density (r-space):              -0.0000548049
  Total Rho_soft + Rho0_soft (g-space):        -0.0000592465

  Wfn fit exchange-correlation energy:                            82.1925189644
  Wfn fit soft/hard atomic rho1 Exc contribution:                 -2.3741040031

  Core Hamiltonian energy:                                        449.3727289227
  Hartree energy:                                                 889.5933786946
  Exchange-correlation energy:                                   -108.2355888265

  GAPW| Exc from hard and soft atomic rho1:                        -8.7099764191
  GAPW| local Eh = 1 center integrals:                           -300.4015032119
        Maximum deviation from MO S-orthonormality                    0.6335E-04
        Minimum/Maximum MO magnitude              0.3306E+00          0.1078E+01
    61 OT CG       0.25E-05  146.3     0.00000324      -666.5055183247  2.25E-09

  Trace(PS):                                  449.9999989384
  Electronic density on regular grids:       -444.3559562470        5.6440437530
  Core density on regular grids:              450.0000000000        0.0000000000
  Hard and soft densities (Lebedev):        -1545.2796313023    -1539.6355327447
  Total Rho_soft + Rho1_hard - Rho1_soft     -450.0000548046
  Total charge density (r-space):              -0.0000548046
  Total Rho_soft + Rho0_soft (g-space):        -0.0000592463

  Wfn fit exchange-correlation energy:                            82.1925189642
  Wfn fit soft/hard atomic rho1 Exc contribution:                 -2.3741040030

  Core Hamiltonian energy:                                        449.3727289216
  Hartree energy:                                                 889.5933786978
  Exchange-correlation energy:                                   -108.2355888261

  GAPW| Exc from hard and soft atomic rho1:                        -8.7099764194
  GAPW| local Eh = 1 center integrals:                           -300.4015032121
        Maximum deviation from MO S-orthonormality                    0.6336E-04
        Minimum/Maximum MO magnitude              0.3306E+00          0.1078E+01
    62 OT LS       0.50E-05  127.0                     -666.5055183224

  Trace(PS):                                  449.9999989382
  Electronic density on regular grids:       -444.3559562468        5.6440437532
  Core density on regular grids:              450.0000000000        0.0000000000
  Hard and soft densities (Lebedev):        -1545.2796313098    -1539.6355327521
  Total Rho_soft + Rho1_hard - Rho1_soft     -450.0000548044
  Total charge density (r-space):              -0.0000548044
  Total Rho_soft + Rho0_soft (g-space):        -0.0000592461

