 DBCSR| CPU Multiplication driver                                           BLAS (U)
 DBCSR| Multrec recursion limit                                              512 (U)
 DBCSR| Multiplication stack size                                           1000 (D)
 DBCSR| Maximum elements for images                                    UNLIMITED (U)
 DBCSR| Multiplicative factor virtual images                                   1 (U)
 DBCSR| Use multiplication densification                                       T (D)
 DBCSR| Multiplication size stacks                                             3 (U)
 DBCSR| Use memory pool for CPU allocation                                     F (U)
 DBCSR| Number of 3D layers                                               SINGLE (U)
 DBCSR| Use MPI memory allocation                                              F (U)
 DBCSR| Use RMA algorithm                                                      F (U)
 DBCSR| Use Communication thread                                               T (U)
 DBCSR| Communication thread load                                             87 (D)
 DBCSR| MPI: My process id                                                     0
 DBCSR| MPI: Number of processes                                              48
 DBCSR| OMP: Current number of threads                                         1
 DBCSR| OMP: Max number of threads                                             1
 DBCSR| Split modifier for TAS multiplication algorithm                  1.0E+00 (U)


  **** **** ******  **  PROGRAM STARTED AT               2025-10-19 14:35:30.790
 ***** ** ***  *** **   PROGRAM STARTED ON                            sebnode131
 **    ****   ******    PROGRAM STARTED BY                                luehrs
 ***** **    ** ** **   PROGRAM PROCESS ID                               1600012
  **** **  *******  **  PROGRAM STARTED IN /home/luehrs/PhD/Sodium_batteries/Sod
                                           ium-graphene-functional_groups/XPS_Fu
                                           nctional_groups/C_atom_XPS/Zigzag_non
                                           hydrogenated_edges

 CP2K| version string:                                       CP2K version 2023.1
 CP2K| source code revision number:                                  git:b888bd8
 CP2K| cp2kflags: omp libint fftw3 libxc elpa parallel scalapack spglib         
 CP2K| is freely available from                            https://www.cp2k.org/
 CP2K| Program compiled at                          Tue Jan 10 19:52:03 UTC 2023
 CP2K| Program compiled on                                            x86-ubc-01
 CP2K| Program compiled for                                Linux-x86_64-gfortran
 CP2K| Data directory path                                       /usr/share/cp2k
 CP2K| Input file name                                                 input.inp

 GLOBAL| Force Environment number                                              1
 GLOBAL| Basis set file name                                          BASIS_GW2X
 GLOBAL| Potential file name                                           POTENTIAL
 GLOBAL| MM Potential file name                                     MM_POTENTIAL
 GLOBAL| Coordinate file name                                         coords.xyz
 GLOBAL| Method name                                                        CP2K
 GLOBAL| Project name                                                         HC
 GLOBAL| Run type                                                         ENERGY
 GLOBAL| FFT library                                                       FFTW3
 GLOBAL| Diagonalization library                                            ELPA
 GLOBAL| DGEMM library                                                      BLAS
 GLOBAL| Minimum number of eigenvectors for ELPA usage                        16
 GLOBAL| Orthonormality check for eigenvectors                          DISABLED
 GLOBAL| Matrix multiplication library                                 ScaLAPACK
 GLOBAL| All-to-all communication in single precision                          F
 GLOBAL| FFTs using library dependent lengths                                  F
 GLOBAL| Grid backend                                                       AUTO
 GLOBAL| Global print level                                                 HIGH
 GLOBAL| MPI I/O enabled                                                       T
 GLOBAL| Total number of message passing processes                            48
 GLOBAL| Number of threads for this process                                    1
 GLOBAL| This output is from process                                           0
 GLOBAL| Stack size for threads created by OpenMP (OMP_STACKSIZE)        default
 GLOBAL| CPU model name                          AMD EPYC 7513 32-Core Processor

 MEMORY| system memory details [Kb]
 MEMORY|                        rank 0           min           max       average
 MEMORY| MemTotal            131832300     131828100     131832300     131829501
 MEMORY| MemFree             127454536     127454536     127711792     127582086
 MEMORY| Buffers                234756        215940        266372        239022
 MEMORY| Cached                 356044        356044        497188        414124
 MEMORY| Slab                   833972        824276        858996        839081
 MEMORY| SReclaimable           143096        143096        183188        157457
 MEMORY| MemLikelyFree       128188432     128188432     128513392     128392690


 *** Fundamental physical constants (SI units) ***

 *** Literature: B. J. Mohr and B. N. Taylor,
 ***             CODATA recommended values of the fundamental physical
 ***             constants: 2006, Web Version 5.1
 ***             http://physics.nist.gov/constants

 Speed of light in vacuum [m/s]                             2.99792458000000E+08
 Magnetic constant or permeability of vacuum [N/A**2]       1.25663706143592E-06
 Electric constant or permittivity of vacuum [F/m]          8.85418781762039E-12
 Planck constant (h) [J*s]                                  6.62606896000000E-34
 Planck constant (h-bar) [J*s]                              1.05457162825177E-34
 Elementary charge [C]                                      1.60217648700000E-19
 Electron mass [kg]                                         9.10938215000000E-31
 Electron g factor [ ]                                     -2.00231930436220E+00
 Proton mass [kg]                                           1.67262163700000E-27
 Fine-structure constant                                    7.29735253760000E-03
 Rydberg constant [1/m]                                     1.09737315685270E+07
 Avogadro constant [1/mol]                                  6.02214179000000E+23
 Boltzmann constant [J/K]                                   1.38065040000000E-23
 Atomic mass unit [kg]                                      1.66053878200000E-27
 Bohr radius [m]                                            5.29177208590000E-11

 *** Conversion factors ***

 [u] -> [a.u.]                                              1.82288848426455E+03
 [Angstrom] -> [Bohr] = [a.u.]                              1.88972613288564E+00
 [a.u.] = [Bohr] -> [Angstrom]                              5.29177208590000E-01
 [a.u.] -> [s]                                              2.41888432650478E-17
 [a.u.] -> [fs]                                             2.41888432650478E-02
 [a.u.] -> [J]                                              4.35974393937059E-18
 [a.u.] -> [N]                                              8.23872205491840E-08
 [a.u.] -> [K]                                              3.15774647902944E+05
 [a.u.] -> [kJ/mol]                                         2.62549961709828E+03
 [a.u.] -> [kcal/mol]                                       6.27509468713739E+02
 [a.u.] -> [Pa]                                             2.94210107994716E+13
 [a.u.] -> [bar]                                            2.94210107994716E+08
 [a.u.] -> [atm]                                            2.90362800883016E+08
 [a.u.] -> [eV]                                             2.72113838565563E+01
 [a.u.] -> [Hz]                                             6.57968392072181E+15
 [a.u.] -> [1/cm] (wave numbers)                            2.19474631370540E+05
 [a.u./Bohr**2] -> [1/cm]                                   5.14048714338585E+03
 

 CELL_TOP| Volume [angstrom^3]:                                     13612.533707
 CELL_TOP| Vector a [angstrom    19.648     0.000     0.000   |a| =    19.648000
 CELL_TOP| Vector b [angstrom    20.000    34.641     0.000   |b| =    40.000000
 CELL_TOP| Vector c [angstrom     0.000     0.000    20.000   |c| =    20.000000
 CELL_TOP| Angle (b,c), alpha [degree]:                                90.000000
 CELL_TOP| Angle (a,c), beta  [degree]:                                90.000000
 CELL_TOP| Angle (a,b), gamma [degree]:                                60.000000
 CELL_TOP| Numerically orthorhombic:                                          NO
 CELL_TOP| Periodicity                                                       XYZ


 SUBCELL GRID  INFO FOR THE NONBONDED NEIGHBOR LISTS

    NUMBER OF SUBCELLS             ::                   6        12         7
    NUMBER OF PERIODIC      IMAGES ::                   1         1         1
    NUMBER OF INTERACTING SUBCELLS ::                   2         2         2

 GENERATE|  Preliminary Number of Bonds generated:                             0
 GENERATE|  Achieved consistency in connectivity generation.

 CELL| Volume [angstrom^3]:                                         13612.533707
 CELL| Vector a [angstrom]:      19.648     0.000     0.000   |a| =    19.648000
 CELL| Vector b [angstrom]:      20.000    34.641     0.000   |b| =    40.000000
 CELL| Vector c [angstrom]:       0.000     0.000    20.000   |c| =    20.000000
 CELL| Angle (b,c), alpha [degree]:                                    90.000000
 CELL| Angle (a,c), beta  [degree]:                                    90.000000
 CELL| Angle (a,b), gamma [degree]:                                    60.000000
 CELL| Numerically orthorhombic:                                              NO
 CELL| Periodicity                                                           XYZ

 CELL_REF| Volume [angstrom^3]:                                     13612.533707
 CELL_REF| Vector a [angstrom    19.648     0.000     0.000   |a| =    19.648000
 CELL_REF| Vector b [angstrom    20.000    34.641     0.000   |b| =    40.000000
 CELL_REF| Vector c [angstrom     0.000     0.000    20.000   |c| =    20.000000
 CELL_REF| Angle (b,c), alpha [degree]:                                90.000000
 CELL_REF| Angle (a,c), beta  [degree]:                                90.000000
 CELL_REF| Angle (a,b), gamma [degree]:                                60.000000
 CELL_REF| Numerically orthorhombic:                                          NO
 CELL_REF| Periodicity                                                       XYZ

 *******************************************************************************
 *******************************************************************************
 **                                                                           **
 **     #####                         ##              ##                      **
 **    ##   ##            ##          ##              ##                      **
 **   ##     ##                       ##            ######                    **
 **   ##     ##  ##   ##  ##   #####  ##  ##   ####   ##    #####    #####    **
 **   ##     ##  ##   ##  ##  ##      ## ##   ##      ##   ##   ##  ##   ##   **
 **   ##  ## ##  ##   ##  ##  ##      ####     ###    ##   ######   ######    **
 **    ##  ###   ##   ##  ##  ##      ## ##      ##   ##   ##       ##        **
 **     #######   #####   ##   #####  ##  ##  ####    ##    #####   ##        **
 **           ##                                                    ##        **
 **                                                                           **
 **                                                ... make the atoms dance   **
 **                                                                           **
 **            Copyright (C) by CP2K developers group (2000-2022)             **
 **                      J. Chem. Phys. 152, 194103 (2020)                    **
 **                                                                           **
 *******************************************************************************

 RADII: ORBITAL BASIS in angstrom            Kind   Label     Radius  OCE Radius
                                                1   C       5.464310    5.464310
                                                2   Cx     10.586320   10.586320

 RADII: SHELL SETS OF ORBITAL BASIS in angstrom   Kind  Label   Set       Radius
                                                     1  C         1     5.464310
                                                     2  Cx        1     1.029760
                                                                  2     2.248558
                                                                  3     3.510222
                                                                  4     5.301536
                                                                  5     8.278841
                                                                  6     2.111957
                                                                  7     3.589446
                                                                  8     6.086067
                                                                  9    10.586320
                                                                 10     1.764030
                                                                 11     3.018919
                                                                 12     6.928919
                                                                 13     2.271820
                                                                 14     6.534266

 RADII: PRIMITIVE GAUSSIANS OF ORBITAL BASIS in anKindomLabel   Set       Radius
                                                     1  C         1     0.802859
                                                                        1.314668
                                                                        2.308781
                                                                        3.176889
                                                                        5.464310
                                                     2  Cx        1     0.020115
                                                                        0.053438
                                                                        0.114577
                                                                        0.218970
                                                                        0.387975
                                                                        0.647712
                                                                        1.029760
                                                     2  Cx        2     0.735149
                                                                        2.248558
                                                     2  Cx        3     3.510222
                                                     2  Cx        4     5.301536
                                                     2  Cx        5     8.278841
                                                     2  Cx        6     0.299696
                                                                        0.653823
                                                                        1.233581
                                                                        2.111957
                                                     2  Cx        7     3.589446
                                                     2  Cx        8     6.086067
                                                     2  Cx        9    10.586320
                                                     2  Cx       10     1.764030
                                                     2  Cx       11     3.018919
                                                     2  Cx       12     6.928919
                                                     2  Cx       13     2.271820
                                                     2  Cx       14     6.534266

 RADII: AUXILLIARY BASIS in angstrom         Kind   Label     Radius  OCE Radius
                                                          1   C         no basis
                                                          2   Cx        no basis

 RADII: SHELL SETS OF AUXILLIARY BASIS in angstromKind  Label   Set       Radius
                                                     1   C              no basis
                                                     2   Cx             no basis

 RADII: PRIMITIVE GAUSSIANS OF AUXILLIARY BASIS inKindstLabel   Set       Radius
                                                     1   C              no basis
                                                     2   Cx             no basis

 RADII: LOCAL RI BASIS in angstrom           Kind   Label     Radius  OCE Radius
                                                          1   C         no basis
                                                          2   Cx        no basis

 RADII: SHELL SETS OF LOCAL RI BASIS in angstrom  Kind  Label   Set       Radius
                                                     1   C              no basis
                                                     2   Cx             no basis

 RADII: PRIMITIVE GAUSSIANS OF LOCAL RI BASIS in aKindroLabel   Set       Radius
                                                     1   C              no basis
                                                     2   Cx             no basis

 RADII: CORE CHARGE DISTRIBUTIONS in angstrom          Kind   Label       Radius
                                                          1   C         1.376023
                                                          2   Cx        1.425687

 RADII: LOCAL PART OF GTH/ELP PP in angstrom           Kind   Label       Radius
                                                          1   C         0.699284

 RADII: NON-LOCAL PART OF GTH PP in angstrom           Kind   Label       Radius
                                                          1   C         0.838527

 RADII: ONE CENTER PROJECTORS in angstrom              Kind   Label       Radius
                                                          1   C         0.895066
                                                          2   Cx        0.895384

 DISTRIBUTION OF THE MOLECULES                    Process    Number of molecules
                                                        0                      3
                                                        1                      3
                                                        2                      2
                                                        3                      3
                                                        4                      2
                                                        5                      2
                                                        6                      2
                                                        7                      3
                                                        8                      2
                                                        9                      2
                                                       10                      3
                                                       11                      2
                                                       12                      2
                                                       13                      2
                                                       14                      2
                                                       15                      3
                                                       16                      3
                                                       17                      2
                                                       18                      3
                                                       19                      2
                                                       20                      2
                                                       21                      2
                                                       22                      2
                                                       23                      2
                                                       24                      2
                                                       25                      2
                                                       26                      2
                                                       27                      3
                                                       28                      2
                                                       29                      2
                                                       30                      3
                                                       31                      3
                                                       32                      3
                                                       33                      3
                                                       34                      2
                                                       35                      3
                                                       36                      3
                                                       37                      2
                                                       38                      2
                                                       39                      2
                                                       40                      2
                                                       41                      2
                                                       42                      2
                                                       43                      2
                                                       44                      2
                                                       45                      3
                                                       46                      2
                                                       47                      2
                                                      Sum                    112

  Process   Kind   Local molecules (global indices)
        0      1         1
               2
               3
               4
               5
               6
               7
               8
               9
              10
              11
              12
              13
              14
              15
              16
              17
              18
              19
              20
              21
              22
              23
              24
              25
              26
              27
              28
              29
              30
              31
              32
              33
              34
              35
              36
              37
              38
              39
              40
              41
              42
              43
              44
              45
              46
              47
              48
              49
              50
              51
              52
              53
              54        54
              55
              56
              57
              58
              59
              60
              61
              62
              63
              64
              65
              66
              67
              68
              69
              70
              71
              72
              73
              74
              75
              76
              77
              78
              79
              80
              81
              82
              83
              84
              85
              86
              87
              88
              89
              90
              91
              92
              93
              94
              95
              96
              97
              98
              99
             100
             101
             102
             103
             104       104
             105
             106
             107
             108
             109
             110
             111
             112

 DISTRIBUTION OF THE PARTICLES                    Process    Number of particles
                                                        0                      3
                                                        1                      3
                                                        2                      2
                                                        3                      3
                                                        4                      2
                                                        5                      2
                                                        6                      2
                                                        7                      3
                                                        8                      2
                                                        9                      2
                                                       10                      3
                                                       11                      2
                                                       12                      2
                                                       13                      2
                                                       14                      2
                                                       15                      3
                                                       16                      3
                                                       17                      2
                                                       18                      3
                                                       19                      2
                                                       20                      2
                                                       21                      2
                                                       22                      2
                                                       23                      2
                                                       24                      2
                                                       25                      2
                                                       26                      2
                                                       27                      3
                                                       28                      2
                                                       29                      2
                                                       30                      3
                                                       31                      3
                                                       32                      3
                                                       33                      3
                                                       34                      2
                                                       35                      3
                                                       36                      3
                                                       37                      2
                                                       38                      2
                                                       39                      2
                                                       40                      2
                                                       41                      2
                                                       42                      2
                                                       43                      2
                                                       44                      2
                                                       45                      3
                                                       46                      2
                                                       47                      2
                                                      Sum                    112

  Process   Kind   Local particles (global indices)
        0      1        1    54   104
               2

 DFT| Spin unrestricted (spin-polarized) Kohn-Sham calculation               UKS
 DFT| Multiplicity                                                             1
 DFT| Number of spin states                                                    2
 DFT| Charge                                                                   0
 DFT| Self-interaction correction (SIC)                                       NO
 DFT| Cutoffs: density                                              1.000000E-10
 DFT|          gradient                                             1.000000E-10
 DFT|          tau                                                  1.000000E-10
 DFT|          cutoff_smoothing_range                               0.000000E+00
 DFT| XC density smoothing                                                  NONE
 DFT| XC derivatives                                                          PW

 FUNCTIONAL| GGA_X_PBE:
 FUNCTIONAL| [1] J. P. Perdew, K. Burke, and M. Ernzerhof, Phys. Rev. Lett. 77, 
 FUNCTIONAL| 3865 (1996), doi: 10.1103/PhysRevLett.77.3865                      
 FUNCTIONAL| Optional external parameters:                                      
 FUNCTIONAL|  * Asymptotic value of the enhancement function                    
 FUNCTIONAL|  * Coefficient of the 2nd order expansion                          
 FUNCTIONAL| {scale=0.550, spin-polarized}                                      
 FUNCTIONAL| GGA_C_PBE:
 FUNCTIONAL| [1] J. P. Perdew, K. Burke, and M. Ernzerhof, Phys. Rev. Lett. 77, 
 FUNCTIONAL| 3865 (1996), doi: 10.1103/PhysRevLett.77.3865                      
 FUNCTIONAL| Optional external parameters:                                      
 FUNCTIONAL|  * beta constant                                                   
 FUNCTIONAL|  * (1 - ln(2))/Pi^2 in the PBE                                     
 FUNCTIONAL|  * Multiplies the A t^2 term. Used in the SPBE functional          
 FUNCTIONAL| {scale=1.000, spin-polarized}                                      


 QS| Method:                                                                GAPW
 QS| Density plane wave grid type                        NON-SPHERICAL FULLSPACE
 QS| Number of grid levels:                                                    5
 QS| Density cutoff [a.u.]:                                                300.0
 QS| Multi grid cutoff [a.u.]: 1) grid level                               300.0
 QS|                           2) grid level                               100.0
 QS|                           3) grid level                                33.3
 QS|                           4) grid level                                11.1
 QS|                           5) grid level                                 3.7
 QS| Grid level progression factor:                                          3.0
 QS| Relative density cutoff [a.u.]:                                        25.0
 QS| Interaction thresholds: eps_pgf_orb:                                1.0E-05
 QS|                         eps_filter_matrix:                          0.0E+00
 QS|                         eps_core_charge:                            1.0E-12
 QS|                         eps_rho_gspace:                             1.0E-10
 QS|                         eps_rho_rspace:                             1.0E-10
 QS|                         eps_gvg_rspace:                             1.0E-05
 QS|                         eps_ppl:                                    1.0E-02
 QS|                         eps_ppnl:                                   1.0E-07
 QS| GAPW|                   eps_fit:                                    1.0E-04
 QS| GAPW|                   eps_iso:                                    1.0E-12
 QS| GAPW|                   eps_svd:                                    1.0E-08
 QS| GAPW|                   eps_cpc:                                    1.0E-10
 QS| GAPW|   atom-r-grid: quadrature:                                     GC_LOG
 QS| GAPW|      atom-s-grid:  max l :                                          6
 QS| GAPW|      max_l_rho0 :                                                   2


 ATOMIC KIND INFORMATION

  1. Atomic kind: C                                     Number of atoms:     111

     Orbital Basis Set                                        DZVP-MOLOPT-SR-GTH

       Number of orbital shell sets:                                           1
       Number of orbital shells:                                               5
       Number of primitive Cartesian functions:                                5
       Number of Cartesian basis functions:                                   14
       Number of spherical basis functions:                                   13
       Norm type:                                                              2

       Normalised Cartesian orbitals:

                        Set   Shell   Orbital            Exponent    Coefficient

                          1       1    2s                5.605331       0.322515
                                                         2.113016       0.213043
                                                         0.769911      -0.209686
                                                         0.348157      -0.219794
                                                         0.128212      -0.022789

                          1       2    3s                5.605331       0.552234
                                                         2.113016       0.082072
                                                         0.769911       0.007843
                                                         0.348157       0.136893
                                                         0.128212       0.074283

                          1       3    3px               5.605331      -0.703879
                                                         2.113016      -0.642521
                                                         0.769911      -0.374851
                                                         0.348157      -0.139743
                                                         0.128212      -0.027849
                          1       3    3py               5.605331      -0.703879
                                                         2.113016      -0.642521
                                                         0.769911      -0.374851
                                                         0.348157      -0.139743
                                                         0.128212      -0.027849
                          1       3    3pz               5.605331      -0.703879
                                                         2.113016      -0.642521
                                                         0.769911      -0.374851
                                                         0.348157      -0.139743
                                                         0.128212      -0.027849

                          1       4    4px               5.605331      -0.480376
                                                         2.113016      -0.552894
                                                         0.769911      -0.316145
                                                         0.348157       0.210505
                                                         0.128212       0.076095
                          1       4    4py               5.605331      -0.480376
                                                         2.113016      -0.552894
                                                         0.769911      -0.316145
                                                         0.348157       0.210505
                                                         0.128212       0.076095
                          1       4    4pz               5.605331      -0.480376
                                                         2.113016      -0.552894
                                                         0.769911      -0.316145
                                                         0.348157       0.210505
                                                         0.128212       0.076095

                          1       5    4dx2              5.605331       0.640026
                                                         2.113016       0.274300
                                                         0.769911       0.446711
                                                         0.348157       0.028674
                                                         0.128212       0.029790
                          1       5    4dxy              5.605331       1.108557
                                                         2.113016       0.475102
                                                         0.769911       0.773726
                                                         0.348157       0.049666
                                                         0.128212       0.051599
                          1       5    4dxz              5.605331       1.108557
                                                         2.113016       0.475102
                                                         0.769911       0.773726
                                                         0.348157       0.049666
                                                         0.128212       0.051599
                          1       5    4dy2              5.605331       0.640026
                                                         2.113016       0.274300
                                                         0.769911       0.446711
                                                         0.348157       0.028674
                                                         0.128212       0.029790
                          1       5    4dyz              5.605331       1.108557
                                                         2.113016       0.475102
                                                         0.769911       0.773726
                                                         0.348157       0.049666
                                                         0.128212       0.051599
                          1       5    4dz2              5.605331       0.640026
                                                         2.113016       0.274300
                                                         0.769911       0.446711
                                                         0.348157       0.028674
                                                         0.128212       0.029790

     Auxiliary Fit Basis Set                                                FIT3

       Number of orbital shell sets:                                           6
       Number of orbital shells:                                               6
       Number of primitive Cartesian functions:                                6
       Number of Cartesian basis functions:                                   12
       Number of spherical basis functions:                                   12
       Norm type:                                                              2

       Normalised Cartesian orbitals:

                        Set   Shell   Orbital            Exponent    Coefficient

                          1       1    1s                0.143490       0.166160

                          2       1    1s                0.450840       0.392127

                          3       1    1s                4.420950       2.172935

                          4       1    1px               0.152150       0.135450
                          4       1    1py               0.152150       0.135450
                          4       1    1pz               0.152150       0.135450

                          5       1    1px               0.670820       0.865362
                          5       1    1py               0.670820       0.865362
                          5       1    1pz               0.670820       0.865362

                          6       1    1px               3.053900       5.754513
                          6       1    1py               3.053900       5.754513
                          6       1    1pz               3.053900       5.754513

       Atomic covalent radius [Angstrom]:                                  0.770

       Atomic van der Waals radius [Angstrom]:                             1.700

     The atoms of this atomic kind are PAW atoms (GAPW):
       Hard Gaussian function radius:                                      1.512
       Rho0 radius:                                                        1.512
       Maximum GTO radius used for PAW projector construction:            24.566

     GAPW Soft Basis Set                                 DZVP-MOLOPT-SR-GTH_soft

       Number of orbital shell sets:                                           1
       Number of orbital shells:                                               5
       Number of primitive Cartesian functions:                                4
       Number of Cartesian basis functions:                                   14
       Number of spherical basis functions:                                   13
       Norm type:                                                              2

       Normalised Cartesian orbitals:

                        Set   Shell   Orbital            Exponent    Coefficient

                          1       1    2s                2.113016       0.213043
                                                         0.769911      -0.209686
                                                         0.348157      -0.219794
                                                         0.128212      -0.022789

                          1       2    3s                2.113016       0.082072
                                                         0.769911       0.007843
                                                         0.348157       0.136893
                                                         0.128212       0.074283

                          1       3    3px               2.113016      -0.642521
                                                         0.769911      -0.374851
                                                         0.348157      -0.139743
                                                         0.128212      -0.027849
                          1       3    3py               2.113016      -0.642521
                                                         0.769911      -0.374851
                                                         0.348157      -0.139743
                                                         0.128212      -0.027849
                          1       3    3pz               2.113016      -0.642521
                                                         0.769911      -0.374851
                                                         0.348157      -0.139743
                                                         0.128212      -0.027849

                          1       4    4px               2.113016      -0.552894
                                                         0.769911      -0.316145
                                                         0.348157       0.210505
                                                         0.128212       0.076095
                          1       4    4py               2.113016      -0.552894
                                                         0.769911      -0.316145
                                                         0.348157       0.210505
                                                         0.128212       0.076095
                          1       4    4pz               2.113016      -0.552894
                                                         0.769911      -0.316145
                                                         0.348157       0.210505
                                                         0.128212       0.076095

                          1       5    4dx2              2.113016       0.274300
                                                         0.769911       0.446711
                                                         0.348157       0.028674
                                                         0.128212       0.029790
                          1       5    4dxy              2.113016       0.475102
                                                         0.769911       0.773726
                                                         0.348157       0.049666
                                                         0.128212       0.051599
                          1       5    4dxz              2.113016       0.475102
                                                         0.769911       0.773726
                                                         0.348157       0.049666
                                                         0.128212       0.051599
                          1       5    4dy2              2.113016       0.274300
                                                         0.769911       0.446711
                                                         0.348157       0.028674
                                                         0.128212       0.029790
                          1       5    4dyz              2.113016       0.475102
                                                         0.769911       0.773726
                                                         0.348157       0.049666
                                                         0.128212       0.051599
                          1       5    4dz2              2.113016       0.274300
                                                         0.769911       0.446711
                                                         0.348157       0.028674
                                                         0.128212       0.029790

     GTH Potential information for                                       GTH-PBE

       Description:                       Goedecker-Teter-Hutter pseudopotential
                                           Goedecker et al., PRB 54, 1703 (1996)
                                          Hartwigsen et al., PRB 58, 3641 (1998)
                                                      Krack, TCA 114, 145 (2005)

       Gaussian exponent of the core charge distribution:               4.364419
       Electronic configuration (s p d ...):                               2   2

       Parameters of the local part of the GTH pseudopotential:

                          rloc        C1          C2          C3          C4
                        0.338471   -8.803674    1.339211

       Parameters of the non-local part of the GTH pseudopotential:

                   l      r(l)      h(i,j,l)

                   0    0.302576    9.622487
                   1    0.291507

  2. Atomic kind: Cx                                    Number of atoms:       1

     Orbital Basis Set                                               aug-pcseg-2

       Number of orbital shell sets:                                          14
       Number of orbital shells:                                              14
       Number of primitive Cartesian functions:                               24
       Number of Cartesian basis functions:                                   55
       Number of spherical basis functions:                                   46
       Norm type:                                                              2

       Normalised Cartesian orbitals:

                        Set   Shell   Orbital            Exponent    Coefficient

                          1       1    1s             7319.990000       0.349375
                                                      1098.180000       0.650557
                                                       250.014000       1.096680
                                                        70.758600       1.627573
                                                        22.859500       1.933206
                                                         8.039360       1.515585
                                                         2.893090       0.510144

                          2       1    1s                5.216400      -0.507287
                                                         0.556124       0.494060

                          3       1    1s                0.228813       0.235787

                          4       1    1s                0.093634       0.120638

                          5       1    1s                0.035418       0.058187

                          6       1    1px              33.985500       1.362795
                                                         7.729570       1.535057
                                                         2.249540       1.244013
                                                         0.767681       0.729116
                          6       1    1py              33.985500       1.362795
                                                         7.729570       1.535057
                                                         2.249540       1.244013
                                                         0.767681       0.729116
                          6       1    1pz              33.985500       1.362795
                                                         7.729570       1.535057
                                                         2.249540       1.244013
                                                         0.767681       0.729116

                          7       1    1px               0.263283       0.268824
                          7       1    1py               0.263283       0.268824
                          7       1    1pz               0.263283       0.268824

                          8       1    1px               0.084874       0.065300
                          8       1    1py               0.084874       0.065300
                          8       1    1pz               0.084874       0.065300

                          9       1    1px               0.025704       0.014670
                          9       1    1py               0.025704       0.014670
                          9       1    1pz               0.025704       0.014670

                         10       1    1dx2              1.400000       2.965743
                         10       1    1dxy              1.400000       5.136818
                         10       1    1dxz              1.400000       5.136818
                         10       1    1dy2              1.400000       2.965743
                         10       1    1dyz              1.400000       5.136818
                         10       1    1dz2              1.400000       2.965743

                         11       1    1dx2              0.450000       0.406941
                         11       1    1dxy              0.450000       0.704842
                         11       1    1dxz              0.450000       0.704842
                         11       1    1dy2              0.450000       0.406941
                         11       1    1dyz              0.450000       0.704842
                         11       1    1dz2              0.450000       0.406941

                         12       1    1dx2              0.077111       0.018572
                         12       1    1dxy              0.077111       0.032168
                         12       1    1dxz              0.077111       0.032168
                         12       1    1dy2              0.077111       0.018572
                         12       1    1dyz              0.077111       0.032168
                         12       1    1dz2              0.077111       0.018572

                         13       1    1fx3              0.950000       1.311694
                         13       1    1fx2y             0.950000       2.933037
                         13       1    1fx2z             0.950000       2.933037
                         13       1    1fxy2             0.950000       2.933037
                         13       1    1fxyz             0.950000       5.080169
                         13       1    1fxz2             0.950000       2.933037
                         13       1    1fy3              0.950000       1.311694
                         13       1    1fy2z             0.950000       2.933037
                         13       1    1fyz2             0.950000       2.933037
                         13       1    1fz3              0.950000       1.311694

                         14       1    1fx3              0.102810       0.008811
                         14       1    1fx2y             0.102810       0.019702
                         14       1    1fx2z             0.102810       0.019702
                         14       1    1fxy2             0.102810       0.019702
                         14       1    1fxyz             0.102810       0.034126
                         14       1    1fxz2             0.102810       0.019702
                         14       1    1fy3              0.102810       0.008811
                         14       1    1fy2z             0.102810       0.019702
                         14       1    1fyz2             0.102810       0.019702
                         14       1    1fz3              0.102810       0.008811

     Auxiliary Fit Basis Set                                          aug-admm-2

       Number of orbital shell sets:                                           3
       Number of orbital shells:                                              10
       Number of primitive Cartesian functions:                               12
       Number of Cartesian basis functions:                                   26
       Number of spherical basis functions:                                   24
       Norm type:                                                              2

       Normalised Cartesian orbitals:

                        Set   Shell   Orbital            Exponent    Coefficient

                          1       1    1s              109.016000       4.923462
                                                        18.264600       5.452682
                                                         4.347920       0.000000
                                                         0.481253       0.000000
                                                         0.143588       0.000000
                                                         0.040429       0.000000

                          1       2    2s              109.016000       0.000000
                                                        18.264600       0.000000
                                                         4.347920       2.145958
                                                         0.481253       0.000000
                                                         0.143588       0.000000
                                                         0.040429       0.000000

                          1       3    3s              109.016000       0.000000
                                                        18.264600       0.000000
                                                         4.347920       0.000000
                                                         0.481253       0.411804
                                                         0.143588       0.000000
                                                         0.040429       0.000000

                          1       4    4s              109.016000       0.000000
                                                        18.264600       0.000000
                                                         4.347920       0.000000
                                                         0.481253       0.000000
                                                         0.143588       0.166245
                                                         0.040429       0.000000

                          1       5    5s              109.016000       0.000000
                                                        18.264600       0.000000
                                                         4.347920       0.000000
                                                         0.481253       0.000000
                                                         0.143588       0.000000
                                                         0.040429       0.064258

                          2       1    1px               2.823390       1.538017
                                                         0.590232       0.604745
                                                         0.152426       0.000000
                                                         0.038107       0.000000
                          2       1    1py               2.823390       1.538017
                                                         0.590232       0.604745
                                                         0.152426       0.000000
                                                         0.038107       0.000000
                          2       1    1pz               2.823390       1.538017
                                                         0.590232       0.604745
                                                         0.152426       0.000000
                                                         0.038107       0.000000

                          2       2    2px               2.823390       0.000000
                                                         0.590232       0.000000
                                                         0.152426       0.135758
                                                         0.038107       0.000000
                          2       2    2py               2.823390       0.000000
                                                         0.590232       0.000000
                                                         0.152426       0.135758
                                                         0.038107       0.000000
                          2       2    2pz               2.823390       0.000000
                                                         0.590232       0.000000
                                                         0.152426       0.135758
                                                         0.038107       0.000000

                          2       3    3px               2.823390       0.000000
                                                         0.590232       0.000000
                                                         0.152426       0.000000
                                                         0.038107       0.023999
                          2       3    3py               2.823390       0.000000
                                                         0.590232       0.000000
                                                         0.152426       0.000000
                                                         0.038107       0.023999
                          2       3    3pz               2.823390       0.000000
                                                         0.590232       0.000000
                                                         0.152426       0.000000
                                                         0.038107       0.023999

                          3       1    1dx2              0.800000       1.113825
                                                         0.114320       0.000000
                          3       1    1dxy              0.800000       1.929201
                                                         0.114320       0.000000
                          3       1    1dxz              0.800000       1.929201
                                                         0.114320       0.000000
                          3       1    1dy2              0.800000       1.113825
                                                         0.114320       0.000000
                          3       1    1dyz              0.800000       1.929201
                                                         0.114320       0.000000
                          3       1    1dz2              0.800000       1.113825
                                                         0.114320       0.000000

                          3       2    2dx2              0.800000       0.000000
                                                         0.114320       0.036993
                          3       2    2dxy              0.800000       0.000000
                                                         0.114320       0.064074
                          3       2    2dxz              0.800000       0.000000
                                                         0.114320       0.064074
                          3       2    2dy2              0.800000       0.000000
                                                         0.114320       0.036993
                          3       2    2dyz              0.800000       0.000000
                                                         0.114320       0.064074
                          3       2    2dz2              0.800000       0.000000
                                                         0.114320       0.036993

       Atomic covalent radius [Angstrom]:                                  0.770

       Atomic van der Waals radius [Angstrom]:                             1.700

     The atoms of this atomic kind are PAW atoms (GAPW):
       Hard Gaussian function radius:                                      1.512
       Rho0 radius:                                                        1.512
       Maximum GTO radius used for PAW projector construction:            24.566

     GAPW Soft Basis Set                                        aug-pcseg-2_soft

       Number of orbital shell sets:                                          14
       Number of orbital shells:                                              14
       Number of primitive Cartesian functions:                               15
       Number of Cartesian basis functions:                                   55
       Number of spherical basis functions:                                   46
       Norm type:                                                              2

       Normalised Cartesian orbitals:

                        Set   Shell   Orbital            Exponent    Coefficient

                          1       1    1s                2.893090       0.510144

                          2       1    1s                0.556124       0.494060

                          3       1    1s                0.228813       0.235787

                          4       1    1s                0.093634       0.120638

                          5       1    1s                0.035418       0.058187

                          6       1    1px               2.249540       1.244013
                                                         0.767681       0.729116
                          6       1    1py               2.249540       1.244013
                                                         0.767681       0.729116
                          6       1    1pz               2.249540       1.244013
                                                         0.767681       0.729116

                          7       1    1px               0.263283       0.268824
                          7       1    1py               0.263283       0.268824
                          7       1    1pz               0.263283       0.268824

                          8       1    1px               0.084874       0.065300
                          8       1    1py               0.084874       0.065300
                          8       1    1pz               0.084874       0.065300

                          9       1    1px               0.025704       0.014670
                          9       1    1py               0.025704       0.014670
                          9       1    1pz               0.025704       0.014670

                         10       1    1dx2              1.400000       2.965743
                         10       1    1dxy              1.400000       5.136818
                         10       1    1dxz              1.400000       5.136818
                         10       1    1dy2              1.400000       2.965743
                         10       1    1dyz              1.400000       5.136818
                         10       1    1dz2              1.400000       2.965743

                         11       1    1dx2              0.450000       0.406941
                         11       1    1dxy              0.450000       0.704842
                         11       1    1dxz              0.450000       0.704842
                         11       1    1dy2              0.450000       0.406941
                         11       1    1dyz              0.450000       0.704842
                         11       1    1dz2              0.450000       0.406941

                         12       1    1dx2              0.077111       0.018572
                         12       1    1dxy              0.077111       0.032168
                         12       1    1dxz              0.077111       0.032168
                         12       1    1dy2              0.077111       0.018572
                         12       1    1dyz              0.077111       0.032168
                         12       1    1dz2              0.077111       0.018572

                         13       1    1fx3              0.950000       1.311694
                         13       1    1fx2y             0.950000       2.933037
                         13       1    1fx2z             0.950000       2.933037
                         13       1    1fxy2             0.950000       2.933037
                         13       1    1fxyz             0.950000       5.080169
                         13       1    1fxz2             0.950000       2.933037
                         13       1    1fy3              0.950000       1.311694
                         13       1    1fy2z             0.950000       2.933037
                         13       1    1fyz2             0.950000       2.933037
                         13       1    1fz3              0.950000       1.311694

                         14       1    1fx3              0.102810       0.008811
                         14       1    1fx2y             0.102810       0.019702
                         14       1    1fx2z             0.102810       0.019702
                         14       1    1fxy2             0.102810       0.019702
                         14       1    1fxyz             0.102810       0.034126
                         14       1    1fxz2             0.102810       0.019702
                         14       1    1fy3              0.102810       0.008811
                         14       1    1fy2z             0.102810       0.019702
                         14       1    1fyz2             0.102810       0.019702
                         14       1    1fz3              0.102810       0.008811

     AE Potential information for                                            ALL

       Description:                                       All-electron potential
                                          Krack, Parrinello, PCCP 2, 2105 (2000)

       Gaussian exponent of the core charge distribution:               4.109048
       Electronic configuration (s p d ...):                           4   2   0


 MOLECULE KIND INFORMATION


 All atoms are their own molecule, skipping detailed information


 TOTAL NUMBERS AND MAXIMUM NUMBERS

  Total number of            - Atomic kinds:                                   2
                             - Atoms:                                        112
                             - Shell sets:                                   125
                             - Shells:                                       569
                             - Primitive Cartesian functions:                579
                             - Cartesian basis functions:                   1609
                             - Spherical basis functions:                   1489

  Maximum angular momentum of- Orbital basis functions:                        3
                             - Local part of the GTH pseudopotential:          2
                             - Non-local part of the GTH pseudopotential:      0

  AUX_FIT ADMM-Basis: 
  Total number of            - Shell sets:                                   669
                             - Shells:                                       676
                             - Primitive Cartesian functions:                678
                             - Cartesian basis functions:                   1358
                             - Spherical basis functions:                   1356
                               Maximum angular momentum                        2


 MODULE QUICKSTEP: ATOMIC COORDINATES IN ANGSTROM

   Atom Kind Element         X             Y             Z       Z(eff)     Mass
      1    1 C     6      8.650570     14.997000     -0.385440   4.0000  12.0107
      2    1 C     6      9.872180     15.613160     -0.164890   4.0000  12.0107
      3    1 C     6     11.078810     15.016480      0.178360   4.0000  12.0107
      4    1 C     6     12.288480     15.603020      0.540590   4.0000  12.0107
      5    1 C     6     13.523000     14.982010      0.654410   4.0000  12.0107
      6    1 C     6     14.762370     15.559090      0.942360   4.0000  12.0107
      7    1 C     6     16.008280     14.959210      0.775640   4.0000  12.0107
      8    1 C     6     17.258810     15.567430      0.833370   4.0000  12.0107
      9    1 C     6     18.478230     14.991050      0.472990   4.0000  12.0107
     10    1 C     6     19.700720     15.609500      0.261630   4.0000  12.0107
     11    1 C     6     20.904960     15.015280     -0.092950   4.0000  12.0107
     12    1 C     6     22.112940     15.600280     -0.459940   4.0000  12.0107
     13    1 C     6     23.346190     14.980640     -0.586530   4.0000  12.0107
     14    1 C     6     24.584010     15.559130     -0.882230   4.0000  12.0107
     15    1 C     6     25.829840     14.958590     -0.707940   4.0000  12.0107
     16    1 C     6     27.079400     15.569170     -0.754080   4.0000  12.0107
     17    1 C     6     25.821850     13.515640     -0.382170   4.0000  12.0107
     18    1 C     6     23.355860     13.523120     -0.339030   4.0000  12.0107
     19    1 C     6     20.904420     13.537600     -0.068540   4.0000  12.0107
     20    1 C     6     18.460260     13.527350      0.265930   4.0000  12.0107
     21    1 C     6     16.000240     13.514400      0.454940   4.0000  12.0107
     22    1 C     6     14.767840     12.824010      0.353530   4.0000  12.0107
     23    1 C     6     13.533410     13.524480      0.405060   4.0000  12.0107
     24    1 C     6     12.309690     12.833200      0.238670   4.0000  12.0107
     25    1 C     6     11.080550     13.539970      0.140990   4.0000  12.0107
     26    1 C     6      9.853020     12.836290      0.003930   4.0000  12.0107
     27    1 C     6      8.634230     13.531440     -0.187120   4.0000  12.0107
     28    1 C     6      7.398420     12.827880     -0.210210   4.0000  12.0107
     29    1 C     6     24.590270     12.824020     -0.284210   4.0000  12.0107
     30    1 C     6     22.132460     12.831120     -0.172340   4.0000  12.0107
     31    1 C     6     19.677690     12.832730      0.068340   4.0000  12.0107
     32    1 C     6     17.224160     12.824920      0.285110   4.0000  12.0107
     33    1 C     6     24.586460     11.397520     -0.151580   4.0000  12.0107
     34    1 C     6     23.354550     10.684680     -0.115870   4.0000  12.0107
     35    1 C     6     22.130060     11.396960     -0.108200   4.0000  12.0107
     36    1 C     6     20.900410     10.684710     -0.055560   4.0000  12.0107
     37    1 C     6     19.673530     11.397020      0.015590   4.0000  12.0107
     38    1 C     6     18.447380     10.684580      0.059570   4.0000  12.0107
     39    1 C     6     17.218890     11.397050      0.154460   4.0000  12.0107
     40    1 C     6     15.990800     10.684440      0.158070   4.0000  12.0107
     41    1 C     6     14.764420     11.397490      0.217480   4.0000  12.0107
     42    1 C     6     13.531980     10.685830      0.182060   4.0000  12.0107
     43    1 C     6     12.307940     11.399470      0.174820   4.0000  12.0107
     44    1 C     6     11.077220     10.688480      0.121310   4.0000  12.0107
     45    1 C     6      9.849160     11.401160      0.051030   4.0000  12.0107
     46    1 C     6      8.623030     10.689690      0.007570   4.0000  12.0107
     47    1 C     6      7.393450     11.400190     -0.085230   4.0000  12.0107
     48    1 C     6      6.165290     10.686440     -0.092590   4.0000  12.0107
     49    1 C     6      6.161880      9.257690     -0.037320   4.0000  12.0107
     50    1 C     6      7.387790      8.547130      0.030380   4.0000  12.0107
     51    1 C     6      8.619260      9.262980      0.058510   4.0000  12.0107
     52    1 C     6      9.844750      8.552810      0.126290   4.0000  12.0107
     53    1 C     6     11.076040      9.264290      0.139580   4.0000  12.0107
     54    1 C     6     12.305230      8.546260      0.162450   4.0000  12.0107
     55    1 C     6     13.531360      9.257500      0.152790   4.0000  12.0107
     56    1 C     6     14.760380      8.541100      0.118070   4.0000  12.0107
     57    1 C     6     15.987940      9.254980      0.098020   4.0000  12.0107
     58    1 C     6     17.211590      8.541110      0.033890   4.0000  12.0107
     59    1 C     6     18.443740      9.256910      0.010100   4.0000  12.0107
     60    1 C     6     19.668960      8.545540     -0.049220   4.0000  12.0107
     61    1 C     6     20.899240      9.257860     -0.067280   4.0000  12.0107
     62    1 C     6     22.128650      8.542190     -0.088050   4.0000  12.0107
     63    1 C     6     23.353580      9.256370     -0.087040   4.0000  12.0107
     64    1 C     6     22.128090      7.112180     -0.108630   4.0000  12.0107
     65    1 C     6     20.895690      6.404740     -0.143430   4.0000  12.0107
     66    1 C     6     19.667310      7.117540     -0.096340   4.0000  12.0107
     67    1 C     6     18.439740      6.406360     -0.092590   4.0000  12.0107
     68    1 C     6     17.208310      7.113720     -0.011100   4.0000  12.0107
     69    1 C     6     15.981200      6.396840      0.030350   4.0000  12.0107
     70    1 C     6     14.758040      7.113940      0.102760   4.0000  12.0107
     71    1 C     6     13.527790      6.401350      0.168140   4.0000  12.0107
     72    1 C     6     12.304260      7.118670      0.194220   4.0000  12.0107
     73    1 C     6     11.069180      6.409850      0.248060   4.0000  12.0107
     74    1 C     6      9.841460      7.128440      0.189170   4.0000  12.0107
     75    1 C     6      8.616420      6.417560      0.181900   4.0000  12.0107
     76    1 C     6      7.384720      7.122320      0.082030   4.0000  12.0107
     77    1 C     6      6.157080      6.404900      0.035530   4.0000  12.0107
     78    1 C     6      4.932710      7.114950     -0.039810   4.0000  12.0107
     79    1 C     6      4.935040      8.542620     -0.058110   4.0000  12.0107
     80    1 C     6      3.705020      6.395600     -0.090650   4.0000  12.0107
     81    1 C     6      3.704710      4.957720     -0.125680   4.0000  12.0107
     82    1 C     6      4.936700      4.247220     -0.010470   4.0000  12.0107
     83    1 C     6      6.155280      4.971720      0.088490   4.0000  12.0107
     84    1 C     6      7.383720      4.287170      0.261110   4.0000  12.0107
     85    1 C     6      8.612640      4.993760      0.295250   4.0000  12.0107
     86    1 C     6      9.831160      4.281470      0.445560   4.0000  12.0107
     87    1 C     6     11.063800      4.994010      0.369790   4.0000  12.0107
     88    1 C     6     12.293740      4.282700      0.392010   4.0000  12.0107
     89    1 C     6     13.522840      4.967360      0.221580   4.0000  12.0107
     90    1 C     6     14.748930      4.244800      0.123770   4.0000  12.0107
     91    1 C     6     15.977690      4.958080     -0.010330   4.0000  12.0107
     92    1 C     6     17.202650      4.273110     -0.189420   4.0000  12.0107
     93    1 C     6     18.436860      4.980440     -0.207090   4.0000  12.0107
     94    1 C     6     19.659240      4.286440     -0.354740   4.0000  12.0107
     95    1 C     6     20.891980      4.978780     -0.253920   4.0000  12.0107
     96    1 C     6     19.653570      2.844340     -0.648470   4.0000  12.0107
     97    1 C     6     18.411640      2.211280     -0.731520   4.0000  12.0107
     98    1 C     6     17.196200      2.812960     -0.378970   4.0000  12.0107
     99    1 C     6     15.968900      2.216610     -0.172850   4.0000  12.0107
    100    1 C     6     14.754470      2.756270      0.154730   4.0000  12.0107
    101    2 C     6     13.503480      2.205410      0.471790   6.0000  12.0107
    102    1 C     6     12.323210      2.858090      0.601540   4.0000  12.0107
    103    1 C     6     11.063720      2.112260      0.915560   4.0000  12.0107
    104    1 C     6      9.803610      2.866790      0.667600   4.0000  12.0107
    105    1 C     6      8.603200      2.182630      0.660730   4.0000  12.0107
    106    1 C     6      6.180420      2.159780      0.284410   4.0000  12.0107
    107    1 C     6      7.371180      2.855280      0.413800   4.0000  12.0107
    108    1 C     6      4.941660      2.755760      0.014560   4.0000  12.0107
    109    1 C     6      3.708060      2.215150     -0.276980   4.0000  12.0107
    110    1 C     6      2.475240      2.802400     -0.451550   4.0000  12.0107
    111    1 C     6      2.474680      4.271570     -0.272440   4.0000  12.0107
    112    1 C     6      1.243040      2.210250     -0.759680   4.0000  12.0107


 REQUESTED STRUCTURE DATA


 SCF PARAMETERS         Density guess:                                    ATOMIC
                        --------------------------------------------------------
                        max_scf:                                             100
                        max_scf_history:                                       0
                        max_diis:                                              4
                        --------------------------------------------------------
                        eps_scf:                                        1.00E-07
[...]
 flops   377 x    32 x   104           8642070528     100.0%      0.0%      0.0%
 flops   390 x    32 x   104           8940072960     100.0%      0.0%      0.0%
 flops    64 x    32 x   104          10770579456     100.0%      0.0%      0.0%
 flops    33 x    32 x   130          13883950080     100.0%      0.0%      0.0%
 flops   358 x    32 x   117          36929378304     100.0%      0.0%      0.0%
 flops    46 x    32 x    13          37253582080     100.0%      0.0%      0.0%
 flops    13 x    32 x    46          37253582080     100.0%      0.0%      0.0%
 flops   364 x    32 x   117          37548306432     100.0%      0.0%      0.0%
 flops   377 x    32 x   117          38889317376     100.0%      0.0%      0.0%
 flops   390 x    32 x   117          40230328320     100.0%      0.0%      0.0%
 flops    64 x    32 x    32          47378989056     100.0%      0.0%      0.0%
 flops    64 x    32 x   117          48467607552     100.0%      0.0%      0.0%
 flops   358 x    32 x    32          60212002816     100.0%      0.0%      0.0%
 flops   364 x    32 x    32          61221142528     100.0%      0.0%      0.0%
 flops   358 x    32 x   130          61548963840     100.0%      0.0%      0.0%
 flops   364 x    32 x   130          62580510720     100.0%      0.0%      0.0%
 flops   377 x    32 x    32          63407611904     100.0%      0.0%      0.0%
 flops   377 x    32 x   130          64815528960     100.0%      0.0%      0.0%
 flops   390 x    32 x    32          65594081280     100.0%      0.0%      0.0%
 flops   390 x    32 x   130          67050547200     100.0%      0.0%      0.0%
 flops    64 x    32 x   130          80779345920     100.0%      0.0%      0.0%
 flops    12 x    12 x    32         131611189248     100.0%      0.0%      0.0%
 flops    13 x    13 x    32         190648872960     100.0%      0.0%      0.0%
 flops    13 x    13 x    13         237594129994     100.0%      0.0%      0.0%
 flops    13 x    32 x    13         993573648704     100.0%      0.0%      0.0%
 flops inhomo. stacks                 61865035200     100.0%      0.0%      0.0%
 flops total                         2.661669E+12     100.0%      0.0%      0.0%
 flops max/rank                     90.622225E+09     100.0%      0.0%      0.0%
 matmuls inhomo. stacks                     54272     100.0%      0.0%      0.0%
 matmuls total                          201678112     100.0%      0.0%      0.0%
 number of processed stacks               2929420     100.0%      0.0%      0.0%
 average stack size                                    68.8       0.0       0.0
 marketing flops                     3.415942E+12
 -------------------------------------------------------------------------------
 # multiplications                           8099
 max memory usage/rank               1.650307E+09
 # max total images/rank                        3
 # max 3D layers                                1
 # MPI messages exchanged                 7775040
 MPI messages size (bytes):
  total size                       473.845858E+09
  min size                           0.000000E+00
  max size                         427.440000E+03
  average size                      60.944492E+03
 MPI breakdown and total messages size (bytes):
             size <=      128             2473504                    99384
       128 < size <=     8192             1146685               5552522648
      8192 < size <=    32768             1314512              27293461096
     32768 < size <=   131072             1891259             127955323872
    131072 < size <=  4194304              949080             313074236280
   4194304 < size <= 16777216                   0                        0
  16777216 < size                               0                        0
 -------------------------------------------------------------------------------

 *** WARNING in dbcsr_mm.F:290 :: Using a non-square number of MPI ranks ***
 *** might lead to poor performance. Used ranks: 48 Suggested: 49 100    ***

 -------------------------------------------------------------------------------
 -                                                                             -
 -                      DBCSR MESSAGE PASSING PERFORMANCE                      -
 -                                                                             -
 -------------------------------------------------------------------------------
 ROUTINE             CALLS      AVE VOLUME [Bytes]
 MP_Bcast              101                     12.
 MP_Allreduce        41304                     17.
 MP_Alltoall         62658                  33079.
 MP_ISend           374236                  29431.
 MP_IRecv           374316                  28141.
 -------------------------------------------------------------------------------

 -------------------------------------------------------------------------------
 -                                                                             -
 -                                DBM STATISTICS                               -
 -                                                                             -
 -------------------------------------------------------------------------------
    M  x    N  x    K                                          COUNT     PERCENT
 -------------------------------------------------------------------------------

 -------------------------------------------------------------------------------
 -                                                                             -
 -                                GRID STATISTICS                              -
 -                                                                             -
 -------------------------------------------------------------------------------
 LP    KERNEL             BACKEND                              COUNT     PERCENT
 4     collocate general  REF                               17576632      24.87%
 1     collocate general  REF                               13223028      18.71%
 2     collocate general  REF                                9798934      13.87%
 4     integrate general  REF                                8788320      12.44%
 1     integrate general  REF                                6639120       9.40%
 2     integrate general  REF                                5558304       7.87%
 0     collocate general  REF                                5292606       7.49%
 0     integrate general  REF                                2665392       3.77%
 3     collocate general  REF                                 587096       0.83%
 3     integrate general  REF                                 293760       0.42%
 5     collocate general  REF                                 159360       0.23%
 5     integrate general  REF                                  79680       0.11%
 6     collocate general  REF                                   1920       0.00%
 6     integrate general  REF                                    960       0.00%
 -------------------------------------------------------------------------------

 MEMORY| Estimated peak process memory [MiB]                                1575

 -------------------------------------------------------------------------------
 ----                             MULTIGRID INFO                            ----
 -------------------------------------------------------------------------------
 count for grid        1:         663603          cutoff [a.u.]          300.00
 count for grid        2:         233634          cutoff [a.u.]          100.00
 count for grid        3:         341709          cutoff [a.u.]           33.33
 count for grid        4:         181429          cutoff [a.u.]           11.11
 count for grid        5:          34064          cutoff [a.u.]            3.70
 total gridlevel count  :        1454439

 -------------------------------------------------------------------------------
 -                                                                             -
 -                         MESSAGE PASSING PERFORMANCE                         -
 -                                                                             -
 -------------------------------------------------------------------------------

 ROUTINE             CALLS      AVE VOLUME [Bytes]
 MP_Group                5
 MP_Bcast           237216                   9812.
 MP_Allreduce       303321                   7996.
 MP_Sync              4025
 MP_Alltoall         16241               34470949.
 MP_SendRecv        135360                 203584.
 MP_ISendRecv       112706                 173231.
 MP_Wait            301881
 MP_comm_split         884
 MP_ISend           177652                 605506.
 MP_IRecv           177652                 604885.
 MP_Recv               264                 226328.
 MP_Write_All            9                1777500.
 -------------------------------------------------------------------------------


 -------------------------------------------------------------------------------
 -                                                                             -
 -                           R E F E R E N C E S                               -
 -                                                                             -
 -------------------------------------------------------------------------------
 
 CP2K version 2023.1, the CP2K developers group (2023).
 CP2K is freely available from https://www.cp2k.org/ .

 Kuehne,Thomas D.; Iannuzzi,Marcella; Del Ben,Mauro;
 Rybkin,Vladimir V.; Seewald,Patrick; Stein,Frederick; Laino,Teodoro;
 Khaliullin,Rustam Z.; Schuett,Ole; Schiffmann,Florian; Golze,Dorothea;
 Wilhelm,Jan; Chulkov,Sergey; Bani-Hashemian,Mohammad Hossein;
 Weber,Valery; Borstnik,Urban; Taillefumier,Mathieu;
 Jakobovits,Alice Shoshana; Lazzaro,Alfio; Pabst,Hans; Mueller,Tiziano;
 Schade,Robert; Guidon,Manuel; Andermatt,Samuel; Holmberg,Nico;
 Schenter,Gregory K.; Hehn,Anna; Bussy,Augustin; Belleflamme,Fabian;
 Tabacchi,Gloria; Gloess,Andreas; Lass,Michael; Bethune,Iain;
 Mundy,Christopher J.; Plessl,Christian; Watkins,Matt;
 VandeVondele,Joost; Krack,Matthias; Hutter,Juerg. 
 The Journal of Chemical Physics, 152 (19), (2020). 
 CP2K: An electronic structure and molecular dynamics software package -
 Quickstep: Efficient and accurate electronic structure calculations.
 https://doi.org/10.1063/5.0007045

 Lehtola, S; Steigemann, C; Oliveira, MJT; Marques, MAL. 
 SoftwareX, 7, 1-5 (2018). 
 Recent developments in libxc - A comprehensive library of functionals
 for density functional theory.
 https://doi.org/10.1016/j.softx.2017.11.002

 Schuett, Ole; Messmer, Peter; Hutter, Juerg; VandeVondele, Joost. 
 Electronic Structure Calculations on Graphics Processing Units, John
 Wiley & Sons, Ltd, 173-190 (2016). 
 GPU-Accelerated Sparse Matrix-Matrix Multiplication for
 Linear Scaling Density Functional Theory.
 https://doi.org/10.1002/9781118670712.ch8

 Borstnik, U; VandeVondele, J; Weber, V; Hutter, J. 
 PARALLEL COMPUTING, 40 (5-6), 47-58 (2014). 
 Sparse matrix multiplication: The distributed block-compressed sparse
 row library.
 https://doi.org/10.1016/j.parco.2014.03.012

 Hutter, J; Iannuzzi, M; Schiffmann, F; VandeVondele, J. 
 WIREs Comput Mol Sci., 4 (1), 15-25 (2014). 
 CP2K: atomistic simulations of condensed matter systems.
 https://doi.org/10.1002/wcms.1159

 Marek, A; Blum, V; Johanni, R; Havu, V; Lang, B; Auckenthaler, T;
 Heinecke, A; Bungartz, H; Lederer, H. 
 Journal of Physics: Condensed Matter, 26 (21), (2014). 
 The ELPA library: scalable parallel eigenvalue solutions for
 electronic structure
 theory and computational science.
 https://doi.org/10.1088/0953-8984/26/21/213201

 Marques, MAL; Oliveira, MJT; Burnus, T. 
 COMPUTER PHYSICS COMMUNICATIONS, 183 (10), 2272-2281 (2012). 
 LIBXC: A library of exchange and correlation functionals for density
 functional theory.
 https://doi.org/10.1016/j.cpc.2012.05.007

 Guidon, M; Hutter, J; VandeVondele, J. 
 JOURNAL OF CHEMICAL THEORY AND COMPUTATION, 6 (8), 2348-2364 (2010). 
 Auxiliary Density Matrix Methods for Hartree-Fock Exchange Calculations.
 https://doi.org/10.1021/ct1002225

 Guidon, M; Hutter, J; VandeVondele, J. 
 JOURNAL OF CHEMICAL THEORY AND COMPUTATION, 5 (11), 3010-3021 (2009). 
 Robust Periodic Hartree-Fock Exchange for Large-Scale Simulations Using
 Gaussian Basis Sets.
 https://doi.org/10.1021/ct900494g

 Guidon, M; Schiffmann, F; Hutter, J; VandeVondele, J. 
 JOURNAL OF CHEMICAL PHYSICS, 128 (21), 214104 (2008). 
 Ab initio molecular dynamics using hybrid density functionals.
 https://doi.org/10.1063/1.2931945

 VandeVondele, J; Hutter, J. 
 JOURNAL OF CHEMICAL PHYSICS, 127 (11), 114105 (2007). 
 Gaussian basis sets for accurate calculations on molecular systems in
 gas and condensed phases.
 https://doi.org/10.1063/1.2770708

 Krack, M. 
 THEORETICAL CHEMISTRY ACCOUNTS, 114 (1-3), 145-152 (2005). 
 Pseudopotentials for H to Kr optimized for gradient-corrected
 exchange-correlation functionals.
 https://doi.org/10.1007/s00214-005-0655-y

 Frigo, M; Johnson, SG. 
 PROCEEDINGS OF THE IEEE, 93 (2), 216-231 (2005). 
 The design and implementation of FFTW3.
 https://doi.org/10.1109/JPROC.2004.840301

 Heyd, J; Scuseria, GE. 
 JOURNAL OF CHEMICAL PHYSICS, 120 (16), 7274-7280 (2004). 
 Assessment and validation of a screened Coulomb hybrid density
 functional.
 https://doi.org/10.1063/1.1668634

 VandeVondele, J; Hutter, J. 
 JOURNAL OF CHEMICAL PHYSICS, 118 (10), 4365-4369 (2003). 
 An efficient orbital transformation method for electronic structure
 calculations.
 https://doi.org/10.1063/1.1543154

 Lippert, G; Hutter, J; Parrinello, M. 
 THEORETICAL CHEMISTRY ACCOUNTS, 103 (2), 124-140 (1999). 
 The Gaussian and augmented-plane-wave density functional method for ab
 initio molecular dynamics simulations.
 https://doi.org/10.1007/s002140050523

 Krack, M; Parrinello, M. 
 PHYSICAL CHEMISTRY CHEMICAL PHYSICS, 2 (10), 2105-2112 (2000). 
 All-electron ab-initio molecular dynamics.
 https://doi.org/10.1039/b001167n

 Hartwigsen, C; Goedecker, S; Hutter, J. 
 PHYSICAL REVIEW B, 58 (7), 3641-3662 (1998). 
 Relativistic separable dual-space Gaussian pseudopotentials from H to Rn.
 https://doi.org/10.1103/PhysRevB.58.3641

 Goedecker, S; Teter, M; Hutter, J. 
 PHYSICAL REVIEW B, 54 (3), 1703-1710 (1996). 
 Separable dual-space Gaussian pseudopotentials.
 https://doi.org/10.1103/PhysRevB.54.1703


 -------------------------------------------------------------------------------
 -                                                                             -
 -                                T I M I N G                                  -
 -                                                                             -
 -------------------------------------------------------------------------------
 SUBROUTINE                       CALLS  ASD         SELF TIME        TOTAL TIME
                                MAXIMUM       AVERAGE  MAXIMUM  AVERAGE  MAXIMUM
 CP2K                                 1  1.0     0.03     0.06 33709.33 33709.33
 qs_energies                          1  2.0     0.00     0.00 33708.06 33708.06
 scf_env_do_scf                       1  3.0     0.00     0.00 33572.88 33572.88
 scf_env_do_scf_inner_loop          239  4.0     0.01     0.02 33023.90 33024.61
 qs_ks_update_qs_env                242  5.0     0.00     0.00 27364.27 27376.77
 rebuild_ks_matrix                  239  6.0     0.00     0.00 27364.03 27376.51
 qs_ks_build_kohn_sham_matrix       239  7.0     0.06     0.11 27364.03 27376.51
 pw_transfer                      14032 10.6     1.38     1.64 16694.23 16763.62
 fft_wrap_pw1pw2                  13314 11.6     0.18     0.20 16685.27 16754.74
 fft3d_ps                         13314 13.6   267.57   300.51 16426.07 16505.05
 mp_alltoall_z22v                 13314 15.6 16048.23 16152.15 16048.23 16152.15
 fft_wrap_pw1pw2_300               7554 13.1    60.80    69.93 15301.32 15390.74
 qs_vxc_create                      478  8.0     0.01     0.02 10942.69 10942.73
 x_to_yz                           5872 15.2    30.48    36.95  9190.77  9262.71
 xc_pw_derive                      4308 11.0     0.04     0.05  9099.47  9180.64
 calculate_rho_elec                 958  7.5     3.76     4.23  9003.92  9030.48
 density_rs2pw                      958  8.5     0.05     0.07  8452.51  8541.79
 xc_vxc_pw_create                   240  9.0     3.54     3.98  7576.43  7576.45
 yz_to_x                           6002 14.2    59.85    66.02  6928.60  7038.54
 rs_pw_transfer                    7681 10.0     0.12     0.17  6632.27  6771.85
 xc_rho_set_and_dset_create         478 10.0     5.51     6.25  6569.65  6715.57
 mp_waitany                      177652 11.9  5732.54  6006.02  5732.54  6006.02
 hfx_ks_matrix                      239  8.0     0.01     0.01  5093.89  5093.94
 integrate_four_center              239  9.0     1.36     1.50  5093.76  5093.79
 integrate_four_center_main         239 10.0     0.05     0.07  4818.64  5006.25
 integrate_four_center_bin        15296 11.0  4818.59  5006.19  4818.59  5006.19
 admm_mo_calc_rho_aux               239  8.0     0.01     0.01  4768.46  4768.76
 qs_rho_update_rho_low              240  5.0     0.01     0.01  4635.70  4647.85
 xc_pw_divergence                   480 10.0     0.01     0.02  4117.14  4184.26
 xc_exc_calc                        238  9.0     0.93     1.05  3366.25  3366.26
 sum_up_and_integrate               120  8.0     4.15     5.21  3267.83  3268.12
 integrate_v_rspace                 480  9.0     0.02     0.03  3263.61  3264.71
 potential_pw2rs                    480 10.0     0.12     0.13  3183.99  3186.69
 rs_pw_transfer_RS2PW_300          1200 10.6    30.15    37.73  2712.79  2883.04
 mp_waitall_1                    772149 13.7  1098.50  1814.95  1098.50  1814.95
 rs_pw_transfer_PW2RS_300           721 11.3    13.13    14.08  1149.76  1511.26
 rs_pw_transfer_RS2PW_100           960 10.5     4.53     6.04  1399.02  1437.19
 dbcsr_multiply_generic            8099  9.9     0.20     0.22  1181.14  1279.05
 rs_pw_transfer_PW2RS_100           480 12.0     2.40     2.97   704.04  1080.92
 prepare_gapw_den                   478  8.5     0.01     0.01  1060.78  1064.83
 put_rho0_on_grid                   239  9.0     1.38     3.03  1054.50  1058.57
 qs_scf_new_mos                     239  5.0     0.00     0.00  1005.64  1027.42
 qs_scf_loop_do_ot                  239  6.0     0.00     0.00  1005.64  1027.42
 fft_wrap_pw1pw2_100               1440 12.0     0.82     1.10   979.12  1003.43
 admm_mo_merge_ks_matrix            239  8.0     0.00     0.00   978.47  1000.16
 merge_ks_matrix_none               239  9.0     0.01     0.01   978.47  1000.16
 ot_scf_mini                        239  7.0     0.01     0.01   910.75   912.89
 mp_sum_d                         17911 10.9   761.58   824.05   761.58   824.05
 multiply_cannon                   8099 10.9     0.38     0.42   630.91   765.88
 dbcsr_complete_redistribute       4798 10.6     0.40     0.55   639.56   720.24
 xc_functional_eval               12906 10.2     0.03     0.03   542.09   678.70
 -------------------------------------------------------------------------------

 The number of warnings for this run is : 5
 
 -------------------------------------------------------------------------------
  **** **** ******  **  PROGRAM ENDED AT                 2025-10-19 23:57:21.483
 ***** ** ***  *** **   PROGRAM RAN ON                                sebnode131
 **    ****   ******    PROGRAM RAN BY                                    luehrs
 ***** **    ** ** **   PROGRAM PROCESS ID                               1600012
  **** **  *******  **  PROGRAM STOPPED IN /home/luehrs/PhD/Sodium_batteries/Sod
                                           ium-graphene-functional_groups/XPS_Fu
                                           nctional_groups/C_atom_XPS/Zigzag_non
                                           hydrogenated_edges
