 DBCSR| CPU Multiplication driver                                           BLAS (U)
 DBCSR| Multrec recursion limit                                              512 (U)
 DBCSR| Multiplication stack size                                           1000 (D)
 DBCSR| Maximum elements for images                                    UNLIMITED (U)
 DBCSR| Multiplicative factor virtual images                                   1 (U)
 DBCSR| Use multiplication densification                                       T (D)
 DBCSR| Multiplication size stacks                                             3 (U)
 DBCSR| Use memory pool for CPU allocation                                     F (U)
 DBCSR| Number of 3D layers                                               SINGLE (U)
 DBCSR| Use MPI memory allocation                                              F (U)
 DBCSR| Use RMA algorithm                                                      F (U)
 DBCSR| Use Communication thread                                               T (U)
 DBCSR| Communication thread load                                             87 (D)
 DBCSR| MPI: My process id                                                     0
 DBCSR| MPI: Number of processes                                              16
 DBCSR| OMP: Current number of threads                                         1
 DBCSR| OMP: Max number of threads                                             1
 DBCSR| Split modifier for TAS multiplication algorithm                  1.0E+00 (U)


  **** **** ******  **  PROGRAM STARTED AT               2025-10-11 13:01:19.242
 ***** ** ***  *** **   PROGRAM STARTED ON                            sebnode128
 **    ****   ******    PROGRAM STARTED BY                                luehrs
 ***** **    ** ** **   PROGRAM PROCESS ID                               3248790
  **** **  *******  **  PROGRAM STARTED IN /home/luehrs/PhD/Sodium_batteries/Sod
                                           ium-graphene-functional_groups/XPS_Fu
                                           nctional_groups/C_atom_XPS/Zigzag_non
                                           hydrogenated_edges

 CP2K| version string:                                       CP2K version 2023.1
 CP2K| source code revision number:                                  git:b888bd8
 CP2K| cp2kflags: omp libint fftw3 libxc elpa parallel scalapack spglib         
 CP2K| is freely available from                            https://www.cp2k.org/
 CP2K| Program compiled at                          Tue Jan 10 19:52:03 UTC 2023
 CP2K| Program compiled on                                            x86-ubc-01
 CP2K| Program compiled for                                Linux-x86_64-gfortran
 CP2K| Data directory path                                       /usr/share/cp2k
 CP2K| Input file name                                                 input.inp

 GLOBAL| Force Environment number                                              1
 GLOBAL| Basis set file name                                          BASIS_GW2X
 GLOBAL| Potential file name                                           POTENTIAL
 GLOBAL| MM Potential file name                                     MM_POTENTIAL
 GLOBAL| Coordinate file name                                     coords_new.xyz
 GLOBAL| Method name                                                        CP2K
 GLOBAL| Project name                                                         HC
 GLOBAL| Run type                                                         ENERGY
 GLOBAL| FFT library                                                       FFTW3
 GLOBAL| Diagonalization library                                            ELPA
 GLOBAL| DGEMM library                                                      BLAS
 GLOBAL| Minimum number of eigenvectors for ELPA usage                        16
 GLOBAL| Orthonormality check for eigenvectors                          DISABLED
 GLOBAL| Matrix multiplication library                                 ScaLAPACK
 GLOBAL| All-to-all communication in single precision                          F
 GLOBAL| FFTs using library dependent lengths                                  F
 GLOBAL| Grid backend                                                       AUTO
 GLOBAL| Global print level                                                 HIGH
 GLOBAL| MPI I/O enabled                                                       T
 GLOBAL| Total number of message passing processes                            16
 GLOBAL| Number of threads for this process                                    1
 GLOBAL| This output is from process                                           0
 GLOBAL| Stack size for threads created by OpenMP (OMP_STACKSIZE)        default
 GLOBAL| CPU model name                          AMD EPYC 7513 32-Core Processor

 MEMORY| system memory details [Kb]
 MEMORY|                        rank 0           min           max       average
 MEMORY| MemTotal            131832292     131832292     131832292     131832292
 MEMORY| MemFree             127684272     127684272     127684272     127684272
 MEMORY| Buffers                 59844         59844         59844         59844
 MEMORY| Cached                 316444        316444        316444        316444
 MEMORY| Slab                   783268        783268        783268        783268
 MEMORY| SReclaimable           135748        135748        135748        135748
 MEMORY| MemLikelyFree       128196308     128196308     128196308     128196308


 *** Fundamental physical constants (SI units) ***

 *** Literature: B. J. Mohr and B. N. Taylor,
 ***             CODATA recommended values of the fundamental physical
 ***             constants: 2006, Web Version 5.1
 ***             http://physics.nist.gov/constants

 Speed of light in vacuum [m/s]                             2.99792458000000E+08
 Magnetic constant or permeability of vacuum [N/A**2]       1.25663706143592E-06
 Electric constant or permittivity of vacuum [F/m]          8.85418781762039E-12
 Planck constant (h) [J*s]                                  6.62606896000000E-34
 Planck constant (h-bar) [J*s]                              1.05457162825177E-34
 Elementary charge [C]                                      1.60217648700000E-19
 Electron mass [kg]                                         9.10938215000000E-31
 Electron g factor [ ]                                     -2.00231930436220E+00
 Proton mass [kg]                                           1.67262163700000E-27
 Fine-structure constant                                    7.29735253760000E-03
 Rydberg constant [1/m]                                     1.09737315685270E+07
 Avogadro constant [1/mol]                                  6.02214179000000E+23
 Boltzmann constant [J/K]                                   1.38065040000000E-23
 Atomic mass unit [kg]                                      1.66053878200000E-27
 Bohr radius [m]                                            5.29177208590000E-11

 *** Conversion factors ***

 [u] -> [a.u.]                                              1.82288848426455E+03
 [Angstrom] -> [Bohr] = [a.u.]                              1.88972613288564E+00
 [a.u.] = [Bohr] -> [Angstrom]                              5.29177208590000E-01
 [a.u.] -> [s]                                              2.41888432650478E-17
 [a.u.] -> [fs]                                             2.41888432650478E-02
 [a.u.] -> [J]                                              4.35974393937059E-18
 [a.u.] -> [N]                                              8.23872205491840E-08
 [a.u.] -> [K]                                              3.15774647902944E+05
 [a.u.] -> [kJ/mol]                                         2.62549961709828E+03
 [a.u.] -> [kcal/mol]                                       6.27509468713739E+02
 [a.u.] -> [Pa]                                             2.94210107994716E+13
 [a.u.] -> [bar]                                            2.94210107994716E+08
 [a.u.] -> [atm]                                            2.90362800883016E+08
 [a.u.] -> [eV]                                             2.72113838565563E+01
 [a.u.] -> [Hz]                                             6.57968392072181E+15
 [a.u.] -> [1/cm] (wave numbers)                            2.19474631370540E+05
 [a.u./Bohr**2] -> [1/cm]                                   5.14048714338585E+03
 

 CELL_TOP| Volume [angstrom^3]:                                     10209.400280
 CELL_TOP| Vector a [angstrom    19.648     0.000     0.000   |a| =    19.648000
 CELL_TOP| Vector b [angstrom    15.000    25.981     0.000   |b| =    30.000000
 CELL_TOP| Vector c [angstrom     0.000     0.000    20.000   |c| =    20.000000
 CELL_TOP| Angle (b,c), alpha [degree]:                                90.000000
 CELL_TOP| Angle (a,c), beta  [degree]:                                90.000000
 CELL_TOP| Angle (a,b), gamma [degree]:                                60.000000
 CELL_TOP| Numerically orthorhombic:                                          NO
 CELL_TOP| Periodicity                                                       XYZ


 SUBCELL GRID  INFO FOR THE NONBONDED NEIGHBOR LISTS

    NUMBER OF SUBCELLS             ::                   6         9         7
    NUMBER OF PERIODIC      IMAGES ::                   1         1         1
    NUMBER OF INTERACTING SUBCELLS ::                   2         2         2

 GENERATE|  Preliminary Number of Bonds generated:                             0
 GENERATE|  Achieved consistency in connectivity generation.

 CELL| Volume [angstrom^3]:                                         10209.400280
 CELL| Vector a [angstrom]:      19.648     0.000     0.000   |a| =    19.648000
 CELL| Vector b [angstrom]:      15.000    25.981     0.000   |b| =    30.000000
 CELL| Vector c [angstrom]:       0.000     0.000    20.000   |c| =    20.000000
 CELL| Angle (b,c), alpha [degree]:                                    90.000000
 CELL| Angle (a,c), beta  [degree]:                                    90.000000
 CELL| Angle (a,b), gamma [degree]:                                    60.000000
 CELL| Numerically orthorhombic:                                              NO
 CELL| Periodicity                                                           XYZ

 CELL_REF| Volume [angstrom^3]:                                     10209.400280
 CELL_REF| Vector a [angstrom    19.648     0.000     0.000   |a| =    19.648000
 CELL_REF| Vector b [angstrom    15.000    25.981     0.000   |b| =    30.000000
 CELL_REF| Vector c [angstrom     0.000     0.000    20.000   |c| =    20.000000
 CELL_REF| Angle (b,c), alpha [degree]:                                90.000000
 CELL_REF| Angle (a,c), beta  [degree]:                                90.000000
 CELL_REF| Angle (a,b), gamma [degree]:                                60.000000
 CELL_REF| Numerically orthorhombic:                                          NO
 CELL_REF| Periodicity                                                       XYZ

 *******************************************************************************
 *******************************************************************************
 **                                                                           **
 **     #####                         ##              ##                      **
 **    ##   ##            ##          ##              ##                      **
 **   ##     ##                       ##            ######                    **
 **   ##     ##  ##   ##  ##   #####  ##  ##   ####   ##    #####    #####    **
 **   ##     ##  ##   ##  ##  ##      ## ##   ##      ##   ##   ##  ##   ##   **
 **   ##  ## ##  ##   ##  ##  ##      ####     ###    ##   ######   ######    **
 **    ##  ###   ##   ##  ##  ##      ## ##      ##   ##   ##       ##        **
 **     #######   #####   ##   #####  ##  ##  ####    ##    #####   ##        **
 **           ##                                                    ##        **
 **                                                                           **
 **                                                ... make the atoms dance   **
 **                                                                           **
 **            Copyright (C) by CP2K developers group (2000-2022)             **
 **                      J. Chem. Phys. 152, 194103 (2020)                    **
 **                                                                           **
 *******************************************************************************

 RADII: ORBITAL BASIS in angstrom            Kind   Label     Radius  OCE Radius
                                                1   C       5.464310    5.464310
                                                2   Cx     10.586320   10.586320

 RADII: SHELL SETS OF ORBITAL BASIS in angstrom   Kind  Label   Set       Radius
                                                     1  C         1     5.464310
                                                     2  Cx        1     1.029760
                                                                  2     2.248558
                                                                  3     3.510222
                                                                  4     5.301536
                                                                  5     8.278841
                                                                  6     2.111957
                                                                  7     3.589446
                                                                  8     6.086067
                                                                  9    10.586320
                                                                 10     1.764030
                                                                 11     3.018919
                                                                 12     6.928919
                                                                 13     2.271820
                                                                 14     6.534266

 RADII: PRIMITIVE GAUSSIANS OF ORBITAL BASIS in anKindomLabel   Set       Radius
                                                     1  C         1     0.802859
                                                                        1.314668
                                                                        2.308781
                                                                        3.176889
                                                                        5.464310
                                                     2  Cx        1     0.020115
                                                                        0.053438
                                                                        0.114577
                                                                        0.218970
                                                                        0.387975
                                                                        0.647712
                                                                        1.029760
                                                     2  Cx        2     0.735149
                                                                        2.248558
                                                     2  Cx        3     3.510222
                                                     2  Cx        4     5.301536
                                                     2  Cx        5     8.278841
                                                     2  Cx        6     0.299696
                                                                        0.653823
                                                                        1.233581
                                                                        2.111957
                                                     2  Cx        7     3.589446
                                                     2  Cx        8     6.086067
                                                     2  Cx        9    10.586320
                                                     2  Cx       10     1.764030
                                                     2  Cx       11     3.018919
                                                     2  Cx       12     6.928919
                                                     2  Cx       13     2.271820
                                                     2  Cx       14     6.534266

 RADII: AUXILLIARY BASIS in angstrom         Kind   Label     Radius  OCE Radius
                                                          1   C         no basis
                                                          2   Cx        no basis

 RADII: SHELL SETS OF AUXILLIARY BASIS in angstromKind  Label   Set       Radius
                                                     1   C              no basis
                                                     2   Cx             no basis

 RADII: PRIMITIVE GAUSSIANS OF AUXILLIARY BASIS inKindstLabel   Set       Radius
                                                     1   C              no basis
                                                     2   Cx             no basis

 RADII: LOCAL RI BASIS in angstrom           Kind   Label     Radius  OCE Radius
                                                          1   C         no basis
                                                          2   Cx        no basis

 RADII: SHELL SETS OF LOCAL RI BASIS in angstrom  Kind  Label   Set       Radius
                                                     1   C              no basis
                                                     2   Cx             no basis

 RADII: PRIMITIVE GAUSSIANS OF LOCAL RI BASIS in aKindroLabel   Set       Radius
                                                     1   C              no basis
                                                     2   Cx             no basis

 RADII: CORE CHARGE DISTRIBUTIONS in angstrom          Kind   Label       Radius
                                                          1   C         1.376023
                                                          2   Cx        1.425687

 RADII: LOCAL PART OF GTH/ELP PP in angstrom           Kind   Label       Radius
                                                          1   C         0.699284

 RADII: NON-LOCAL PART OF GTH PP in angstrom           Kind   Label       Radius
                                                          1   C         0.838527

 RADII: ONE CENTER PROJECTORS in angstrom              Kind   Label       Radius
                                                          1   C         0.895066
                                                          2   Cx        0.895384

 DISTRIBUTION OF THE MOLECULES                    Process    Number of molecules
                                                        0                      7
                                                        1                      7
                                                        2                      5
                                                        3                      7
                                                        4                      7
                                                        5                      7
                                                        6                      7
                                                        7                      7
                                                        8                      8
                                                        9                      7
                                                       10                      7
                                                       11                      7
                                                       12                      7
                                                       13                      7
                                                       14                      8
                                                       15                      7
                                                      Sum                    112

  Process   Kind   Local molecules (global indices)
        0      1         1
               2
               3
               4
               5
               6
               7
               8
               9
              10
              11
              12
              13
              14
              15
              16
              17
              18
              19
              20
              21        21
              22
              23
              24
              25
              26
              27
              28
              29
              30
              31
              32
              33
              34
              35
              36
              37
              38
              39        39
              40
              41
              42
              43
              44
              45
              46
              47
              48        48
              49
              50
              51
              52
              53
              54
              55
              56
              57
              58
              59
              60
              61
              62
              63
              64
              65        65
              66
              67
              68
              69
              70
              71
              72
              73
              74
              75
              76
              77
              78
              79
              80
              81        81
              82
              83
              84
              85
              86
              87
              88
              89
              90
              91
              92
              93
              94
              95
              96
              97        97
              98
              99
             100
             101
             102
             103
             104
             105
             106
             107
             108
             109
             110
             111
             112

 DISTRIBUTION OF THE PARTICLES                    Process    Number of particles
                                                        0                      7
                                                        1                      7
                                                        2                      5
                                                        3                      7
                                                        4                      7
                                                        5                      7
                                                        6                      7
                                                        7                      7
                                                        8                      8
                                                        9                      7
                                                       10                      7
                                                       11                      7
                                                       12                      7
                                                       13                      7
                                                       14                      8
                                                       15                      7
                                                      Sum                    112

  Process   Kind   Local particles (global indices)
        0      1        1    21    39    48    65    81    97
               2

 DFT| Spin unrestricted (spin-polarized) Kohn-Sham calculation               UKS
 DFT| Multiplicity                                                             1
 DFT| Number of spin states                                                    2
 DFT| Charge                                                                   0
 DFT| Self-interaction correction (SIC)                                       NO
 DFT| Cutoffs: density                                              1.000000E-10
 DFT|          gradient                                             1.000000E-10
 DFT|          tau                                                  1.000000E-10
 DFT|          cutoff_smoothing_range                               0.000000E+00
 DFT| XC density smoothing                                                  NONE
 DFT| XC derivatives                                                          PW

 FUNCTIONAL| GGA_X_PBE:
 FUNCTIONAL| [1] J. P. Perdew, K. Burke, and M. Ernzerhof, Phys. Rev. Lett. 77, 
 FUNCTIONAL| 3865 (1996), doi: 10.1103/PhysRevLett.77.3865                      
 FUNCTIONAL| Optional external parameters:                                      
 FUNCTIONAL|  * Asymptotic value of the enhancement function                    
 FUNCTIONAL|  * Coefficient of the 2nd order expansion                          
 FUNCTIONAL| {scale=0.550, spin-polarized}                                      
 FUNCTIONAL| GGA_C_PBE:
 FUNCTIONAL| [1] J. P. Perdew, K. Burke, and M. Ernzerhof, Phys. Rev. Lett. 77, 
 FUNCTIONAL| 3865 (1996), doi: 10.1103/PhysRevLett.77.3865                      
 FUNCTIONAL| Optional external parameters:                                      
 FUNCTIONAL|  * beta constant                                                   
 FUNCTIONAL|  * (1 - ln(2))/Pi^2 in the PBE                                     
 FUNCTIONAL|  * Multiplies the A t^2 term. Used in the SPBE functional          
 FUNCTIONAL| {scale=1.000, spin-polarized}                                      


 QS| Method:                                                                GAPW
 QS| Density plane wave grid type                        NON-SPHERICAL FULLSPACE
 QS| Number of grid levels:                                                    5
 QS| Density cutoff [a.u.]:                                                300.0
 QS| Multi grid cutoff [a.u.]: 1) grid level                               300.0
 QS|                           2) grid level                               100.0
 QS|                           3) grid level                                33.3
 QS|                           4) grid level                                11.1
 QS|                           5) grid level                                 3.7
 QS| Grid level progression factor:                                          3.0
 QS| Relative density cutoff [a.u.]:                                        25.0
 QS| Interaction thresholds: eps_pgf_orb:                                1.0E-05
 QS|                         eps_filter_matrix:                          0.0E+00
 QS|                         eps_core_charge:                            1.0E-12
 QS|                         eps_rho_gspace:                             1.0E-10
 QS|                         eps_rho_rspace:                             1.0E-10
 QS|                         eps_gvg_rspace:                             1.0E-05
 QS|                         eps_ppl:                                    1.0E-02
 QS|                         eps_ppnl:                                   1.0E-07
 QS| GAPW|                   eps_fit:                                    1.0E-04
 QS| GAPW|                   eps_iso:                                    1.0E-12
 QS| GAPW|                   eps_svd:                                    1.0E-08
 QS| GAPW|                   eps_cpc:                                    1.0E-10
 QS| GAPW|   atom-r-grid: quadrature:                                     GC_LOG
 QS| GAPW|      atom-s-grid:  max l :                                          6
 QS| GAPW|      max_l_rho0 :                                                   2


 ATOMIC KIND INFORMATION

  1. Atomic kind: C                                     Number of atoms:     111

     Orbital Basis Set                                        DZVP-MOLOPT-SR-GTH

       Number of orbital shell sets:                                           1
       Number of orbital shells:                                               5
       Number of primitive Cartesian functions:                                5
       Number of Cartesian basis functions:                                   14
       Number of spherical basis functions:                                   13
       Norm type:                                                              2

       Normalised Cartesian orbitals:

                        Set   Shell   Orbital            Exponent    Coefficient

                          1       1    2s                5.605331       0.322515
                                                         2.113016       0.213043
                                                         0.769911      -0.209686
                                                         0.348157      -0.219794
                                                         0.128212      -0.022789

                          1       2    3s                5.605331       0.552234
                                                         2.113016       0.082072
                                                         0.769911       0.007843
                                                         0.348157       0.136893
                                                         0.128212       0.074283

                          1       3    3px               5.605331      -0.703879
                                                         2.113016      -0.642521
                                                         0.769911      -0.374851
                                                         0.348157      -0.139743
                                                         0.128212      -0.027849
                          1       3    3py               5.605331      -0.703879
                                                         2.113016      -0.642521
                                                         0.769911      -0.374851
                                                         0.348157      -0.139743
                                                         0.128212      -0.027849
                          1       3    3pz               5.605331      -0.703879
                                                         2.113016      -0.642521
                                                         0.769911      -0.374851
                                                         0.348157      -0.139743
                                                         0.128212      -0.027849

                          1       4    4px               5.605331      -0.480376
                                                         2.113016      -0.552894
                                                         0.769911      -0.316145
                                                         0.348157       0.210505
                                                         0.128212       0.076095
                          1       4    4py               5.605331      -0.480376
                                                         2.113016      -0.552894
                                                         0.769911      -0.316145
                                                         0.348157       0.210505
                                                         0.128212       0.076095
                          1       4    4pz               5.605331      -0.480376
                                                         2.113016      -0.552894
                                                         0.769911      -0.316145
                                                         0.348157       0.210505
                                                         0.128212       0.076095

                          1       5    4dx2              5.605331       0.640026
                                                         2.113016       0.274300
                                                         0.769911       0.446711
                                                         0.348157       0.028674
                                                         0.128212       0.029790
                          1       5    4dxy              5.605331       1.108557
                                                         2.113016       0.475102
                                                         0.769911       0.773726
                                                         0.348157       0.049666
                                                         0.128212       0.051599
                          1       5    4dxz              5.605331       1.108557
                                                         2.113016       0.475102
                                                         0.769911       0.773726
                                                         0.348157       0.049666
                                                         0.128212       0.051599
                          1       5    4dy2              5.605331       0.640026
                                                         2.113016       0.274300
                                                         0.769911       0.446711
                                                         0.348157       0.028674
                                                         0.128212       0.029790
                          1       5    4dyz              5.605331       1.108557
                                                         2.113016       0.475102
                                                         0.769911       0.773726
                                                         0.348157       0.049666
                                                         0.128212       0.051599
                          1       5    4dz2              5.605331       0.640026
                                                         2.113016       0.274300
                                                         0.769911       0.446711
                                                         0.348157       0.028674
                                                         0.128212       0.029790

     Auxiliary Fit Basis Set                                                FIT3

       Number of orbital shell sets:                                           6
       Number of orbital shells:                                               6
       Number of primitive Cartesian functions:                                6
       Number of Cartesian basis functions:                                   12
       Number of spherical basis functions:                                   12
       Norm type:                                                              2

       Normalised Cartesian orbitals:

                        Set   Shell   Orbital            Exponent    Coefficient

                          1       1    1s                0.143490       0.166160

                          2       1    1s                0.450840       0.392127

                          3       1    1s                4.420950       2.172935

                          4       1    1px               0.152150       0.135450
                          4       1    1py               0.152150       0.135450
                          4       1    1pz               0.152150       0.135450

                          5       1    1px               0.670820       0.865362
                          5       1    1py               0.670820       0.865362
                          5       1    1pz               0.670820       0.865362

                          6       1    1px               3.053900       5.754513
                          6       1    1py               3.053900       5.754513
                          6       1    1pz               3.053900       5.754513

       Atomic covalent radius [Angstrom]:                                  0.770

       Atomic van der Waals radius [Angstrom]:                             1.700

     The atoms of this atomic kind are PAW atoms (GAPW):
       Hard Gaussian function radius:                                      1.512
       Rho0 radius:                                                        1.512
       Maximum GTO radius used for PAW projector construction:            24.566

     GAPW Soft Basis Set                                 DZVP-MOLOPT-SR-GTH_soft

       Number of orbital shell sets:                                           1
       Number of orbital shells:                                               5
       Number of primitive Cartesian functions:                                4
       Number of Cartesian basis functions:                                   14
       Number of spherical basis functions:                                   13
       Norm type:                                                              2

       Normalised Cartesian orbitals:

                        Set   Shell   Orbital            Exponent    Coefficient

                          1       1    2s                2.113016       0.213043
                                                         0.769911      -0.209686
                                                         0.348157      -0.219794
                                                         0.128212      -0.022789

                          1       2    3s                2.113016       0.082072
                                                         0.769911       0.007843
                                                         0.348157       0.136893
                                                         0.128212       0.074283

                          1       3    3px               2.113016      -0.642521
                                                         0.769911      -0.374851
                                                         0.348157      -0.139743
                                                         0.128212      -0.027849
                          1       3    3py               2.113016      -0.642521
                                                         0.769911      -0.374851
                                                         0.348157      -0.139743
                                                         0.128212      -0.027849
                          1       3    3pz               2.113016      -0.642521
                                                         0.769911      -0.374851
                                                         0.348157      -0.139743
                                                         0.128212      -0.027849

                          1       4    4px               2.113016      -0.552894
                                                         0.769911      -0.316145
                                                         0.348157       0.210505
                                                         0.128212       0.076095
                          1       4    4py               2.113016      -0.552894
                                                         0.769911      -0.316145
                                                         0.348157       0.210505
                                                         0.128212       0.076095
                          1       4    4pz               2.113016      -0.552894
                                                         0.769911      -0.316145
                                                         0.348157       0.210505
                                                         0.128212       0.076095

                          1       5    4dx2              2.113016       0.274300
                                                         0.769911       0.446711
                                                         0.348157       0.028674
                                                         0.128212       0.029790
                          1       5    4dxy              2.113016       0.475102
                                                         0.769911       0.773726
                                                         0.348157       0.049666
                                                         0.128212       0.051599
                          1       5    4dxz              2.113016       0.475102
                                                         0.769911       0.773726
                                                         0.348157       0.049666
                                                         0.128212       0.051599
                          1       5    4dy2              2.113016       0.274300
                                                         0.769911       0.446711
                                                         0.348157       0.028674
                                                         0.128212       0.029790
                          1       5    4dyz              2.113016       0.475102
                                                         0.769911       0.773726
                                                         0.348157       0.049666
                                                         0.128212       0.051599
                          1       5    4dz2              2.113016       0.274300
                                                         0.769911       0.446711
                                                         0.348157       0.028674
                                                         0.128212       0.029790

     GTH Potential information for                                       GTH-PBE

       Description:                       Goedecker-Teter-Hutter pseudopotential
                                           Goedecker et al., PRB 54, 1703 (1996)
                                          Hartwigsen et al., PRB 58, 3641 (1998)
                                                      Krack, TCA 114, 145 (2005)

       Gaussian exponent of the core charge distribution:               4.364419
       Electronic configuration (s p d ...):                               2   2

       Parameters of the local part of the GTH pseudopotential:

                          rloc        C1          C2          C3          C4
                        0.338471   -8.803674    1.339211

       Parameters of the non-local part of the GTH pseudopotential:

                   l      r(l)      h(i,j,l)

                   0    0.302576    9.622487
                   1    0.291507

  2. Atomic kind: Cx                                    Number of atoms:       1

     Orbital Basis Set                                               aug-pcseg-2

       Number of orbital shell sets:                                          14
       Number of orbital shells:                                              14
       Number of primitive Cartesian functions:                               24
       Number of Cartesian basis functions:                                   55
       Number of spherical basis functions:                                   46
       Norm type:                                                              2

       Normalised Cartesian orbitals:

                        Set   Shell   Orbital            Exponent    Coefficient

                          1       1    1s             7319.990000       0.349375
                                                      1098.180000       0.650557
                                                       250.014000       1.096680
                                                        70.758600       1.627573
                                                        22.859500       1.933206
                                                         8.039360       1.515585
                                                         2.893090       0.510144

                          2       1    1s                5.216400      -0.507287
                                                         0.556124       0.494060

                          3       1    1s                0.228813       0.235787

                          4       1    1s                0.093634       0.120638

                          5       1    1s                0.035418       0.058187

                          6       1    1px              33.985500       1.362795
                                                         7.729570       1.535057
                                                         2.249540       1.244013
                                                         0.767681       0.729116
                          6       1    1py              33.985500       1.362795
                                                         7.729570       1.535057
                                                         2.249540       1.244013
                                                         0.767681       0.729116
                          6       1    1pz              33.985500       1.362795
                                                         7.729570       1.535057
                                                         2.249540       1.244013
                                                         0.767681       0.729116

                          7       1    1px               0.263283       0.268824
                          7       1    1py               0.263283       0.268824
                          7       1    1pz               0.263283       0.268824

                          8       1    1px               0.084874       0.065300
                          8       1    1py               0.084874       0.065300
                          8       1    1pz               0.084874       0.065300

                          9       1    1px               0.025704       0.014670
                          9       1    1py               0.025704       0.014670
                          9       1    1pz               0.025704       0.014670

                         10       1    1dx2              1.400000       2.965743
                         10       1    1dxy              1.400000       5.136818
                         10       1    1dxz              1.400000       5.136818
                         10       1    1dy2              1.400000       2.965743
                         10       1    1dyz              1.400000       5.136818
                         10       1    1dz2              1.400000       2.965743

                         11       1    1dx2              0.450000       0.406941
                         11       1    1dxy              0.450000       0.704842
                         11       1    1dxz              0.450000       0.704842
                         11       1    1dy2              0.450000       0.406941
                         11       1    1dyz              0.450000       0.704842
                         11       1    1dz2              0.450000       0.406941

                         12       1    1dx2              0.077111       0.018572
                         12       1    1dxy              0.077111       0.032168
                         12       1    1dxz              0.077111       0.032168
                         12       1    1dy2              0.077111       0.018572
                         12       1    1dyz              0.077111       0.032168
                         12       1    1dz2              0.077111       0.018572

                         13       1    1fx3              0.950000       1.311694
                         13       1    1fx2y             0.950000       2.933037
                         13       1    1fx2z             0.950000       2.933037
                         13       1    1fxy2             0.950000       2.933037
                         13       1    1fxyz             0.950000       5.080169
                         13       1    1fxz2             0.950000       2.933037
                         13       1    1fy3              0.950000       1.311694
                         13       1    1fy2z             0.950000       2.933037
                         13       1    1fyz2             0.950000       2.933037
                         13       1    1fz3              0.950000       1.311694

                         14       1    1fx3              0.102810       0.008811
                         14       1    1fx2y             0.102810       0.019702
                         14       1    1fx2z             0.102810       0.019702
                         14       1    1fxy2             0.102810       0.019702
                         14       1    1fxyz             0.102810       0.034126
                         14       1    1fxz2             0.102810       0.019702
                         14       1    1fy3              0.102810       0.008811
                         14       1    1fy2z             0.102810       0.019702
                         14       1    1fyz2             0.102810       0.019702
                         14       1    1fz3              0.102810       0.008811

     Auxiliary Fit Basis Set                                          aug-admm-2

       Number of orbital shell sets:                                           3
       Number of orbital shells:                                              10
       Number of primitive Cartesian functions:                               12
       Number of Cartesian basis functions:                                   26
       Number of spherical basis functions:                                   24
       Norm type:                                                              2

       Normalised Cartesian orbitals:

                        Set   Shell   Orbital            Exponent    Coefficient

                          1       1    1s              109.016000       4.923462
                                                        18.264600       5.452682
                                                         4.347920       0.000000
                                                         0.481253       0.000000
                                                         0.143588       0.000000
                                                         0.040429       0.000000

                          1       2    2s              109.016000       0.000000
                                                        18.264600       0.000000
                                                         4.347920       2.145958
                                                         0.481253       0.000000
                                                         0.143588       0.000000
                                                         0.040429       0.000000

                          1       3    3s              109.016000       0.000000
                                                        18.264600       0.000000
                                                         4.347920       0.000000
                                                         0.481253       0.411804
                                                         0.143588       0.000000
                                                         0.040429       0.000000

                          1       4    4s              109.016000       0.000000
                                                        18.264600       0.000000
                                                         4.347920       0.000000
                                                         0.481253       0.000000
                                                         0.143588       0.166245
                                                         0.040429       0.000000

                          1       5    5s              109.016000       0.000000
                                                        18.264600       0.000000
                                                         4.347920       0.000000
                                                         0.481253       0.000000
                                                         0.143588       0.000000
                                                         0.040429       0.064258

                          2       1    1px               2.823390       1.538017
                                                         0.590232       0.604745
                                                         0.152426       0.000000
                                                         0.038107       0.000000
                          2       1    1py               2.823390       1.538017
                                                         0.590232       0.604745
                                                         0.152426       0.000000
                                                         0.038107       0.000000
                          2       1    1pz               2.823390       1.538017
                                                         0.590232       0.604745
                                                         0.152426       0.000000
                                                         0.038107       0.000000

                          2       2    2px               2.823390       0.000000
                                                         0.590232       0.000000
                                                         0.152426       0.135758
                                                         0.038107       0.000000
                          2       2    2py               2.823390       0.000000
                                                         0.590232       0.000000
                                                         0.152426       0.135758
                                                         0.038107       0.000000
                          2       2    2pz               2.823390       0.000000
                                                         0.590232       0.000000
                                                         0.152426       0.135758
                                                         0.038107       0.000000

                          2       3    3px               2.823390       0.000000
                                                         0.590232       0.000000
                                                         0.152426       0.000000
                                                         0.038107       0.023999
                          2       3    3py               2.823390       0.000000
                                                         0.590232       0.000000
                                                         0.152426       0.000000
                                                         0.038107       0.023999
                          2       3    3pz               2.823390       0.000000
                                                         0.590232       0.000000
                                                         0.152426       0.000000
                                                         0.038107       0.023999

                          3       1    1dx2              0.800000       1.113825
                                                         0.114320       0.000000
                          3       1    1dxy              0.800000       1.929201
                                                         0.114320       0.000000
                          3       1    1dxz              0.800000       1.929201
                                                         0.114320       0.000000
                          3       1    1dy2              0.800000       1.113825
                                                         0.114320       0.000000
                          3       1    1dyz              0.800000       1.929201
                                                         0.114320       0.000000
                          3       1    1dz2              0.800000       1.113825
                                                         0.114320       0.000000

                          3       2    2dx2              0.800000       0.000000
                                                         0.114320       0.036993
                          3       2    2dxy              0.800000       0.000000
                                                         0.114320       0.064074
                          3       2    2dxz              0.800000       0.000000
                                                         0.114320       0.064074
                          3       2    2dy2              0.800000       0.000000
                                                         0.114320       0.036993
                          3       2    2dyz              0.800000       0.000000
                                                         0.114320       0.064074
                          3       2    2dz2              0.800000       0.000000
                                                         0.114320       0.036993

       Atomic covalent radius [Angstrom]:                                  0.770

       Atomic van der Waals radius [Angstrom]:                             1.700

     The atoms of this atomic kind are PAW atoms (GAPW):
       Hard Gaussian function radius:                                      1.512
       Rho0 radius:                                                        1.512
       Maximum GTO radius used for PAW projector construction:            24.566

     GAPW Soft Basis Set                                        aug-pcseg-2_soft

       Number of orbital shell sets:                                          14
       Number of orbital shells:                                              14
       Number of primitive Cartesian functions:                               15
       Number of Cartesian basis functions:                                   55
       Number of spherical basis functions:                                   46
       Norm type:                                                              2

       Normalised Cartesian orbitals:

                        Set   Shell   Orbital            Exponent    Coefficient

                          1       1    1s                2.893090       0.510144

                          2       1    1s                0.556124       0.494060

                          3       1    1s                0.228813       0.235787

                          4       1    1s                0.093634       0.120638

                          5       1    1s                0.035418       0.058187

                          6       1    1px               2.249540       1.244013
                                                         0.767681       0.729116
                          6       1    1py               2.249540       1.244013
                                                         0.767681       0.729116
                          6       1    1pz               2.249540       1.244013
                                                         0.767681       0.729116

                          7       1    1px               0.263283       0.268824
                          7       1    1py               0.263283       0.268824
                          7       1    1pz               0.263283       0.268824

                          8       1    1px               0.084874       0.065300
                          8       1    1py               0.084874       0.065300
                          8       1    1pz               0.084874       0.065300

                          9       1    1px               0.025704       0.014670
                          9       1    1py               0.025704       0.014670
                          9       1    1pz               0.025704       0.014670

                         10       1    1dx2              1.400000       2.965743
                         10       1    1dxy              1.400000       5.136818
                         10       1    1dxz              1.400000       5.136818
                         10       1    1dy2              1.400000       2.965743
                         10       1    1dyz              1.400000       5.136818
                         10       1    1dz2              1.400000       2.965743

                         11       1    1dx2              0.450000       0.406941
                         11       1    1dxy              0.450000       0.704842
                         11       1    1dxz              0.450000       0.704842
                         11       1    1dy2              0.450000       0.406941
                         11       1    1dyz              0.450000       0.704842
                         11       1    1dz2              0.450000       0.406941

                         12       1    1dx2              0.077111       0.018572
                         12       1    1dxy              0.077111       0.032168
                         12       1    1dxz              0.077111       0.032168
                         12       1    1dy2              0.077111       0.018572
                         12       1    1dyz              0.077111       0.032168
                         12       1    1dz2              0.077111       0.018572

                         13       1    1fx3              0.950000       1.311694
                         13       1    1fx2y             0.950000       2.933037
                         13       1    1fx2z             0.950000       2.933037
                         13       1    1fxy2             0.950000       2.933037
                         13       1    1fxyz             0.950000       5.080169
                         13       1    1fxz2             0.950000       2.933037
                         13       1    1fy3              0.950000       1.311694
                         13       1    1fy2z             0.950000       2.933037
                         13       1    1fyz2             0.950000       2.933037
                         13       1    1fz3              0.950000       1.311694

                         14       1    1fx3              0.102810       0.008811
                         14       1    1fx2y             0.102810       0.019702
                         14       1    1fx2z             0.102810       0.019702
                         14       1    1fxy2             0.102810       0.019702
                         14       1    1fxyz             0.102810       0.034126
                         14       1    1fxz2             0.102810       0.019702
                         14       1    1fy3              0.102810       0.008811
                         14       1    1fy2z             0.102810       0.019702
                         14       1    1fyz2             0.102810       0.019702
                         14       1    1fz3              0.102810       0.008811

     AE Potential information for                                            ALL

       Description:                                       All-electron potential
                                          Krack, Parrinello, PCCP 2, 2105 (2000)

       Gaussian exponent of the core charge distribution:               4.109048
       Electronic configuration (s p d ...):                           4   2   0


 MOLECULE KIND INFORMATION


 All atoms are their own molecule, skipping detailed information


 TOTAL NUMBERS AND MAXIMUM NUMBERS

  Total number of            - Atomic kinds:                                   2
                             - Atoms:                                        112
                             - Shell sets:                                   125
                             - Shells:                                       569
                             - Primitive Cartesian functions:                579
                             - Cartesian basis functions:                   1609
                             - Spherical basis functions:                   1489

  Maximum angular momentum of- Orbital basis functions:                        3
                             - Local part of the GTH pseudopotential:          2
                             - Non-local part of the GTH pseudopotential:      0

  AUX_FIT ADMM-Basis: 
  Total number of            - Shell sets:                                   669
                             - Shells:                                       676
                             - Primitive Cartesian functions:                678
                             - Cartesian basis functions:                   1358
                             - Spherical basis functions:                   1356
                               Maximum angular momentum                        2


 MODULE QUICKSTEP: ATOMIC COORDINATES IN ANGSTROM

   Atom Kind Element         X             Y             Z       Z(eff)     Mass
      1    1 C     6      8.596540     14.935600      0.002120   4.0000  12.0107
      2    1 C     6      9.825010     15.620530      0.002050   4.0000  12.0107
      3    1 C     6     11.052630     14.935720      0.001910   4.0000  12.0107
      4    1 C     6     12.280910     15.620680      0.001140   4.0000  12.0107
      5    1 C     6     13.508270     14.935680      0.001340   4.0000  12.0107
      6    1 C     6     14.736700     15.620310      0.000260   4.0000  12.0107
      7    1 C     6     15.964030     14.935180      0.000830   4.0000  12.0107
      8    1 C     6     17.192460     15.620100      0.000110   4.0000  12.0107
      9    1 C     6     18.420060     14.935280      0.000500   4.0000  12.0107
     10    2 C     6     19.648280     15.620660      0.000490   6.0000  12.0107
     11    1 C     6     20.876150     14.936270      0.001050   4.0000  12.0107
     12    1 C     6     22.104460     15.621530      0.001360   4.0000  12.0107
     13    1 C     6     23.332260     14.937020      0.001780   4.0000  12.0107
     14    1 C     6     24.560940     15.621660      0.001560   4.0000  12.0107
     15    1 C     6     25.788360     14.936490      0.001840   4.0000  12.0107
     16    1 C     6     27.017180     15.620970      0.002770   4.0000  12.0107
     17    1 C     6     25.786770     13.490000      0.002040   4.0000  12.0107
     18    1 C     6     23.330560     13.490320      0.002000   4.0000  12.0107
     19    1 C     6     20.874270     13.489860      0.001600   4.0000  12.0107
     20    1 C     6     18.418220     13.489200      0.001470   4.0000  12.0107
     21    1 C     6     15.962410     13.488920      0.002070   4.0000  12.0107
     22    1 C     6     14.733730     12.779480      0.002550   4.0000  12.0107
     23    1 C     6     13.506440     13.489000      0.002570   4.0000  12.0107
     24    1 C     6     12.277770     12.779450      0.002790   4.0000  12.0107
     25    1 C     6     11.050400     13.489110      0.002590   4.0000  12.0107
     26    1 C     6      9.821800     12.780040      0.002740   4.0000  12.0107
     27    1 C     6      8.594610     13.489560      0.002310   4.0000  12.0107
     28    1 C     6      7.366080     12.780660      0.002200   4.0000  12.0107
     29    1 C     6     24.557940     12.780780      0.002080   4.0000  12.0107
     30    1 C     6     22.101850     12.780680      0.002290   4.0000  12.0107
     31    1 C     6     19.645740     12.780410      0.001860   4.0000  12.0107
     32    1 C     6     17.189710     12.779920      0.002040   4.0000  12.0107
     33    1 C     6     24.556350     11.346760      0.001820   4.0000  12.0107
     34    1 C     6     23.328010     10.635040      0.002460   4.0000  12.0107
     35    1 C     6     22.100490     11.346700      0.003140   4.0000  12.0107
     36    1 C     6     20.871870     10.634690      0.003770   4.0000  12.0107
     37    1 C     6     19.644490     11.346340      0.003000   4.0000  12.0107
     38    1 C     6     18.415840     10.634050      0.003580   4.0000  12.0107
     39    1 C     6     17.188190     11.345770      0.003020   4.0000  12.0107
     40    1 C     6     15.959760     10.633670      0.002880   4.0000  12.0107
     41    1 C     6     14.732090     11.345400      0.002250   4.0000  12.0107
     42    1 C     6     13.503640     10.633500     -0.000520   4.0000  12.0107
     43    1 C     6     12.276430     11.345430      0.000620   4.0000  12.0107
     44    1 C     6     11.047800     10.633600     -0.003700   4.0000  12.0107
     45    1 C     6      9.820670     11.345830     -0.000110   4.0000  12.0107
     46    1 C     6      8.591940     10.633850     -0.004240   4.0000  12.0107
     47    1 C     6      7.364510     11.346460     -0.000110   4.0000  12.0107
     48    1 C     6      6.136050     10.634800     -0.001350   4.0000  12.0107
     49    1 C     6      6.134620      9.203820     -0.012810   4.0000  12.0107
     50    1 C     6      7.361610      8.490880     -0.032670   4.0000  12.0107
     51    1 C     6      8.590200      9.203520     -0.023140   4.0000  12.0107
     52    1 C     6      9.817160      8.489880     -0.040290   4.0000  12.0107
     53    1 C     6     11.045860      9.202430     -0.021830   4.0000  12.0107
     54    1 C     6     12.273010      8.488910     -0.029570   4.0000  12.0107
     55    1 C     6     13.501900      9.202320     -0.010520   4.0000  12.0107
     56    1 C     6     14.729170      8.489750     -0.009050   4.0000  12.0107
     57    1 C     6     15.958180      9.202820      0.001110   4.0000  12.0107
     58    1 C     6     17.185270      8.490140      0.003780   4.0000  12.0107
     59    1 C     6     18.414020      9.203240      0.005250   4.0000  12.0107
     60    1 C     6     19.641380      8.490610      0.006190   4.0000  12.0107
     61    1 C     6     20.869990      9.203760      0.004730   4.0000  12.0107
     62    1 C     6     22.097460      8.491020      0.001970   4.0000  12.0107
     63    1 C     6     23.326370      9.203970     -0.000500   4.0000  12.0107
     64    1 C     6     22.094910      7.059800     -0.004090   4.0000  12.0107
     65    1 C     6     20.866140      6.346910      0.001450   4.0000  12.0107
     66    1 C     6     19.638870      7.059080      0.007390   4.0000  12.0107
     67    1 C     6     18.410060      6.345900      0.006010   4.0000  12.0107
     68    1 C     6     17.182470      7.058560      0.001780   4.0000  12.0107
     69    1 C     6     15.953950      6.345830     -0.015140   4.0000  12.0107
     70    1 C     6     14.726290      7.058520     -0.025690   4.0000  12.0107
     71    1 C     6     13.498150      6.346520     -0.063420   4.0000  12.0107
     72    1 C     6     12.270050      7.057630     -0.065620   4.0000  12.0107
     73    1 C     6     11.040860      6.345690     -0.102350   4.0000  12.0107
     74    1 C     6      9.814600      7.059140     -0.084200   4.0000  12.0107
     75    1 C     6      8.585790      6.346800     -0.108440   4.0000  12.0107
     76    1 C     6      7.358630      7.060050     -0.072750   4.0000  12.0107
     77    1 C     6      6.130420      6.348250     -0.075900   4.0000  12.0107
     78    1 C     6      4.902980      7.059810     -0.035340   4.0000  12.0107
     79    1 C     6      4.905620      8.490920     -0.012710   4.0000  12.0107
     80    1 C     6      3.674010      6.348340     -0.028060   4.0000  12.0107
     81    1 C     6      3.672690      4.914720     -0.058620   4.0000  12.0107
     82    1 C     6      4.900010      4.206740     -0.116190   4.0000  12.0107
     83    1 C     6      6.129040      4.914470     -0.125570   4.0000  12.0107
     84    1 C     6      7.356700      4.207050     -0.187410   4.0000  12.0107
     85    1 C     6      8.584150      4.915260     -0.171180   4.0000  12.0107
     86    1 C     6      9.809090      4.202840     -0.204690   4.0000  12.0107
     87    1 C     6     11.039550      4.910970     -0.158300   4.0000  12.0107
     88    1 C     6     12.269530      4.205030     -0.158830   4.0000  12.0107
     89    1 C     6     13.498230      4.912930     -0.100520   4.0000  12.0107
     90    1 C     6     14.725280      4.202470     -0.079670   4.0000  12.0107
     91    1 C     6     15.953640      4.911600     -0.032180   4.0000  12.0107
     92    1 C     6     17.181120      4.202250     -0.015110   4.0000  12.0107
     93    1 C     6     18.409380      4.911680      0.002520   4.0000  12.0107
     94    1 C     6     19.637670      4.202610     -0.001290   4.0000  12.0107
     95    1 C     6     20.865140      4.912700     -0.007620   4.0000  12.0107
     96    1 C     6     19.636660      2.756400     -0.012770   4.0000  12.0107
     97    1 C     6     18.408360      2.072060     -0.018700   4.0000  12.0107
     98    1 C     6     17.180790      2.756210     -0.031550   4.0000  12.0107
     99    1 C     6     15.952990      2.072010     -0.079460   4.0000  12.0107
    100    1 C     6     14.726870      2.756500     -0.111270   4.0000  12.0107
    101    1 C     6     13.498250      2.074340     -0.180210   4.0000  12.0107
    102    1 C     6     12.275300      2.761270     -0.208020   4.0000  12.0107
    103    1 C     6     11.044520      2.079360     -0.278200   4.0000  12.0107
    104    1 C     6      9.818480      2.758790     -0.280480   4.0000  12.0107
    105    1 C     6      8.576220      2.077270     -0.343000   4.0000  12.0107
    106    1 C     6      6.121380      2.077460     -0.262340   4.0000  12.0107
    107    1 C     6      7.342070      2.766540     -0.268960   4.0000  12.0107
    108    1 C     6      4.895650      2.763530     -0.173200   4.0000  12.0107
    109    1 C     6      3.671350      2.075590     -0.139790   4.0000  12.0107
    110    1 C     6      2.443460      2.757990     -0.070210   4.0000  12.0107
    111    1 C     6      2.445530      4.203990     -0.041460   4.0000  12.0107
    112    1 C     6      1.216610      2.072460     -0.041780   4.0000  12.0107


 REQUESTED STRUCTURE DATA


 SCF PARAMETERS         Density guess:                                    ATOMIC
                        --------------------------------------------------------
                        max_scf:                                             100
                        max_scf_history:                                       0
                        max_diis:                                              4
                        --------------------------------------------------------
                        eps_scf:                                        1.00E-07
                        eps_scf_history:                                0.00E+00
                        eps_diis:                                       1.00E-01
                        eps_eigval:                                     1.00E-05
                        --------------------------------------------------------
                        level_shift [a.u.]:                             0.000000
                        --------------------------------------------------------
                        Outer loop SCF in use 
                        No variables optimised in outer loop
                        eps_scf                                         1.00E-07
                        max_scf                                               40
                        No outer loop optimization
                        step_size                                       5.00E-01

 PW_GRID| Information for grid number                                          1
 PW_GRID| Grid distributed over                                    16 processors
 PW_GRID| Real space group dimensions                                    16    1
 PW_GRID| the grid is blocked:                                                NO
 PW_GRID| Cutoff [a.u.]                                                    300.0
 PW_GRID| spherical cutoff:                                                   NO
 PW_GRID|   Bounds   1           -150     149                Points:         300
 PW_GRID|   Bounds   2           -225     224                Points:         450
 PW_GRID|   Bounds   3           -150     149                Points:         300
 PW_GRID| Volume element (a.u.^3)  0.1701E-02     Volume (a.u.^3)     68896.4490
 PW_GRID| Grid span                                                    FULLSPACE
 PW_GRID|   Distribution                         Average         Max         Min
 PW_GRID|   G-Vectors                          2531250.0     2531400     2531100
 PW_GRID|   G-Rays                                8437.5        8438        8437
 PW_GRID|   Real Space Points                  2531250.0     2565000     2430000

 PW_GRID| Information for grid number                                          2
 PW_GRID| Number of the reference grid                                         1
 PW_GRID| Grid distributed over                                    16 processors
 PW_GRID| Real space group dimensions                                    16    1
 PW_GRID| the grid is blocked:                                                NO
 PW_GRID| Cutoff [a.u.]                                                    100.0
 PW_GRID| spherical cutoff:                                                   NO
 PW_GRID|   Bounds   1            -90      89                Points:         180
 PW_GRID|   Bounds   2           -128     127                Points:         256
 PW_GRID|   Bounds   3            -90      89                Points:         180
 PW_GRID| Volume element (a.u.^3)  0.8306E-02     Volume (a.u.^3)     68896.4490
 PW_GRID| Grid span                                                    FULLSPACE
 PW_GRID|   Distribution                         Average         Max         Min
 PW_GRID|   G-Vectors                           518400.0      519300      517860
 PW_GRID|   G-Rays                                2880.0        2885        2877
 PW_GRID|   Real Space Points                   518400.0      552960      506880

 PW_GRID| Information for grid number                                          3
 PW_GRID| Number of the reference grid                                         1
 PW_GRID| Grid distributed over                                    16 processors
 PW_GRID| Real space group dimensions                                    16    1
 PW_GRID| the grid is blocked:                                                NO
 PW_GRID| Cutoff [a.u.]                                                     33.3
 PW_GRID| spherical cutoff:                                                   NO
 PW_GRID|   Bounds   1            -50      49                Points:         100
 PW_GRID|   Bounds   2            -75      74                Points:         150
 PW_GRID|   Bounds   3            -50      49                Points:         100
 PW_GRID| Volume element (a.u.^3)  0.4593E-01     Volume (a.u.^3)     68896.4490
 PW_GRID| Grid span                                                    FULLSPACE
 PW_GRID|   Distribution                         Average         Max         Min
 PW_GRID|   G-Vectors                            93750.0       94000       93500
 PW_GRID|   G-Rays                                 937.5         940         935
 PW_GRID|   Real Space Points                    93750.0      105000       90000

 PW_GRID| Information for grid number                                          4
 PW_GRID| Number of the reference grid                                         1
 PW_GRID| Grid distributed over                                    16 processors
 PW_GRID| Real space group dimensions                                    16    1
 PW_GRID| the grid is blocked:                                                NO
[...]
    63 OT CG       0.50E-05  142.9     0.00000305      -666.5053778314  4.98E-09

  Trace(PS):                                  449.9999987539
  Electronic density on regular grids:       -444.3560116602        5.6439883398
  Core density on regular grids:              450.0000000000        0.0000000000
  Hard and soft densities (Lebedev):        -1545.2943821221    -1539.6503391630
  Total Rho_soft + Rho1_hard - Rho1_soft     -450.0000546193
  Total charge density (r-space):              -0.0000546193
  Total Rho_soft + Rho0_soft (g-space):        -0.0000590610

  Wfn fit exchange-correlation energy:                            82.1924647454
  Wfn fit soft/hard atomic rho1 Exc contribution:                 -2.3740997546

  Core Hamiltonian energy:                                        449.3725285373
  Hartree energy:                                                 889.5938954995
  Exchange-correlation energy:                                   -108.2356264402

  GAPW| Exc from hard and soft atomic rho1:                        -8.7099605760
  GAPW| local Eh = 1 center integrals:                           -300.4015637265
        Maximum deviation from MO S-orthonormality                    0.7495E-04
        Minimum/Maximum MO magnitude              0.3305E+00          0.1078E+01
    64 OT LS       0.10E-04  128.7                     -666.5053778264

  Trace(PS):                                  449.9999987534
  Electronic density on regular grids:       -444.3560116580        5.6439883420
  Core density on regular grids:              450.0000000000        0.0000000000
  Hard and soft densities (Lebedev):        -1545.2943821097    -1539.6503391489
  Total Rho_soft + Rho1_hard - Rho1_soft     -450.0000546189
  Total charge density (r-space):              -0.0000546189
  Total Rho_soft + Rho0_soft (g-space):        -0.0000590605

  Wfn fit exchange-correlation energy:                            82.1924647455
  Wfn fit soft/hard atomic rho1 Exc contribution:                 -2.3740997533

  Core Hamiltonian energy:                                        449.3725285450
  Hartree energy:                                                 889.5938954962
  Exchange-correlation energy:                                   -108.2356264388

  GAPW| Exc from hard and soft atomic rho1:                        -8.7099605790
  GAPW| local Eh = 1 center integrals:                           -300.4015637231
        Maximum deviation from MO S-orthonormality                    0.7496E-04
        Minimum/Maximum MO magnitude              0.3305E+00          0.1078E+01
    65 OT CG       0.10E-04  142.9     0.00000305      -666.5053778214  9.95E-09

  Trace(PS):                                  449.9999987525
  Electronic density on regular grids:       -444.3560116536        5.6439883464
  Core density on regular grids:              450.0000000000        0.0000000000
  Hard and soft densities (Lebedev):        -1545.2943820849    -1539.6503391206
  Total Rho_soft + Rho1_hard - Rho1_soft     -450.0000546179
  Total charge density (r-space):              -0.0000546179
  Total Rho_soft + Rho0_soft (g-space):        -0.0000590595

  Wfn fit exchange-correlation energy:                            82.1924647455
  Wfn fit soft/hard atomic rho1 Exc contribution:                 -2.3740997506

  Core Hamiltonian energy:                                        449.3725285605
  Hartree energy:                                                 889.5938954895
  Exchange-correlation energy:                                   -108.2356264360

  GAPW| Exc from hard and soft atomic rho1:                        -8.7099605851
  GAPW| local Eh = 1 center integrals:                           -300.4015637162
        Maximum deviation from MO S-orthonormality                    0.7497E-04
        Minimum/Maximum MO magnitude              0.3305E+00          0.1078E+01
    66 OT LS       0.10E-06  128.0                     -666.5053778115

  Trace(PS):                                  449.9999987534
  Electronic density on regular grids:       -444.3560116580        5.6439883420
  Core density on regular grids:              450.0000000000        0.0000000000
  Hard and soft densities (Lebedev):        -1545.2943821094    -1539.6503391486
  Total Rho_soft + Rho1_hard - Rho1_soft     -450.0000546189
  Total charge density (r-space):              -0.0000546189
  Total Rho_soft + Rho0_soft (g-space):        -0.0000590605

  Wfn fit exchange-correlation energy:                            82.1924647455
  Wfn fit soft/hard atomic rho1 Exc contribution:                 -2.3740997533

  Core Hamiltonian energy:                                        449.3725285452
  Hartree energy:                                                 889.5938954961
  Exchange-correlation energy:                                   -108.2356264388

  GAPW| Exc from hard and soft atomic rho1:                        -8.7099605791
  GAPW| local Eh = 1 center integrals:                           -300.4015637230
        Maximum deviation from MO S-orthonormality                    0.7496E-04
        Minimum/Maximum MO magnitude              0.3305E+00          0.1078E+01
    67 OT CG       0.10E-06  141.8     0.00000305      -666.5053778213  9.96E-11

  Trace(PS):                                  449.9999987534
  Electronic density on regular grids:       -444.3560116579        5.6439883421
  Core density on regular grids:              450.0000000000        0.0000000000
  Hard and soft densities (Lebedev):        -1545.2943821092    -1539.6503391483
  Total Rho_soft + Rho1_hard - Rho1_soft     -450.0000546188
  Total charge density (r-space):              -0.0000546188
  Total Rho_soft + Rho0_soft (g-space):        -0.0000590605

  Wfn fit exchange-correlation energy:                            82.1924647455
  Wfn fit soft/hard atomic rho1 Exc contribution:                 -2.3740997533

  Core Hamiltonian energy:                                        449.3725285453
  Hartree energy:                                                 889.5938954960
  Exchange-correlation energy:                                   -108.2356264388

  GAPW| Exc from hard and soft atomic rho1:                        -8.7099605792
  GAPW| local Eh = 1 center integrals:                           -300.4015637230
        Maximum deviation from MO S-orthonormality                    0.7496E-04
        Minimum/Maximum MO magnitude              0.3305E+00          0.1078E+01
    68 OT LS       0.20E-06  128.0                     -666.5053778212

  Trace(PS):                                  449.9999987534
  Electronic density on regular grids:       -444.3560116579        5.6439883421
  Core density on regular grids:              450.0000000000        0.0000000000
  Hard and soft densities (Lebedev):        -1545.2943821089    -1539.6503391480
  Total Rho_soft + Rho1_hard - Rho1_soft     -450.0000546188
  Total charge density (r-space):              -0.0000546188
  Total Rho_soft + Rho0_soft (g-space):        -0.0000590605

  Wfn fit exchange-correlation energy:                            82.1924647455
  Wfn fit soft/hard atomic rho1 Exc contribution:                 -2.3740997532

  Core Hamiltonian energy:                                        449.3725285455
  Hartree energy:                                                 889.5938954960
  Exchange-correlation energy:                                   -108.2356264387

  GAPW| Exc from hard and soft atomic rho1:                        -8.7099605792
  GAPW| local Eh = 1 center integrals:                           -300.4015637229
        Maximum deviation from MO S-orthonormality                    0.7496E-04
        Minimum/Maximum MO magnitude              0.3305E+00          0.1078E+01
    69 OT CG       0.20E-06  142.1     0.00000305      -666.5053778211  1.99E-10

  Trace(PS):                                  449.9999987534
  Electronic density on regular grids:       -444.3560116578        5.6439883422
  Core density on regular grids:              450.0000000000        0.0000000000
  Hard and soft densities (Lebedev):        -1545.2943821084    -1539.6503391474
  Total Rho_soft + Rho1_hard - Rho1_soft     -450.0000546188
  Total charge density (r-space):              -0.0000546188
  Total Rho_soft + Rho0_soft (g-space):        -0.0000590604

  Wfn fit exchange-correlation energy:                            82.1924647455
  Wfn fit soft/hard atomic rho1 Exc contribution:                 -2.3740997532

  Core Hamiltonian energy:                                        449.3725285458
  Hartree energy:                                                 889.5938954959
  Exchange-correlation energy:                                   -108.2356264387

  GAPW| Exc from hard and soft atomic rho1:                        -8.7099605793
  GAPW| local Eh = 1 center integrals:                           -300.4015637227
        Maximum deviation from MO S-orthonormality                    0.7496E-04
        Minimum/Maximum MO magnitude              0.3305E+00          0.1078E+01
    70 OT LS       0.40E-06  128.1                     -666.5053778209

  Trace(PS):                                  449.9999987534
  Electronic density on regular grids:       -444.3560116577        5.6439883423
  Core density on regular grids:              450.0000000000        0.0000000000
  Hard and soft densities (Lebedev):        -1545.2943821080    -1539.6503391469
  Total Rho_soft + Rho1_hard - Rho1_soft     -450.0000546188
  Total charge density (r-space):              -0.0000546188
  Total Rho_soft + Rho0_soft (g-space):        -0.0000590604

  Wfn fit exchange-correlation energy:                            82.1924647455
  Wfn fit soft/hard atomic rho1 Exc contribution:                 -2.3740997531

  Core Hamiltonian energy:                                        449.3725285461
  Hartree energy:                                                 889.5938954957
  Exchange-correlation energy:                                   -108.2356264386

  GAPW| Exc from hard and soft atomic rho1:                        -8.7099605795
  GAPW| local Eh = 1 center integrals:                           -300.4015637226
        Maximum deviation from MO S-orthonormality                    0.7496E-04
        Minimum/Maximum MO magnitude              0.3305E+00          0.1078E+01
    71 OT CG       0.40E-06  141.6     0.00000305      -666.5053778207  3.98E-10

  Trace(PS):                                  449.9999987533
  Electronic density on regular grids:       -444.3560116575        5.6439883425
  Core density on regular grids:              450.0000000000        0.0000000000
  Hard and soft densities (Lebedev):        -1545.2943821070    -1539.6503391457
  Total Rho_soft + Rho1_hard - Rho1_soft     -450.0000546188
  Total charge density (r-space):              -0.0000546188
  Total Rho_soft + Rho0_soft (g-space):        -0.0000590604

  Wfn fit exchange-correlation energy:                            82.1924647455
  Wfn fit soft/hard atomic rho1 Exc contribution:                 -2.3740997530

  Core Hamiltonian energy:                                        449.3725285467
  Hartree energy:                                                 889.5938954955
  Exchange-correlation energy:                                   -108.2356264385

  GAPW| Exc from hard and soft atomic rho1:                        -8.7099605797
  GAPW| local Eh = 1 center integrals:                           -300.4015637223
        Maximum deviation from MO S-orthonormality                    0.7496E-04
        Minimum/Maximum MO magnitude              0.3305E+00          0.1078E+01
    72 OT LS       0.81E-06  128.1                     -666.5053778203

  Trace(PS):                                  449.9999987533
  Electronic density on regular grids:       -444.3560116574        5.6439883426
  Core density on regular grids:              450.0000000000        0.0000000000
  Hard and soft densities (Lebedev):        -1545.2943821060    -1539.6503391446
  Total Rho_soft + Rho1_hard - Rho1_soft     -450.0000546187
  Total charge density (r-space):              -0.0000546187
  Total Rho_soft + Rho0_soft (g-space):        -0.0000590603

  Wfn fit exchange-correlation energy:                            82.1924647455
  Wfn fit soft/hard atomic rho1 Exc contribution:                 -2.3740997529

  Core Hamiltonian energy:                                        449.3725285473
  Hartree energy:                                                 889.5938954952
  Exchange-correlation energy:                                   -108.2356264384

  GAPW| Exc from hard and soft atomic rho1:                        -8.7099605799
  GAPW| local Eh = 1 center integrals:                           -300.4015637221
        Maximum deviation from MO S-orthonormality                    0.7496E-04
        Minimum/Maximum MO magnitude              0.3305E+00          0.1078E+01
    73 OT CG       0.81E-06  141.6     0.00000305      -666.5053778199  7.95E-10

  Trace(PS):                                  449.9999987532
  Electronic density on regular grids:       -444.3560116570        5.6439883430
  Core density on regular grids:              450.0000000000        0.0000000000
  Hard and soft densities (Lebedev):        -1545.2943821040    -1539.6503391424
  Total Rho_soft + Rho1_hard - Rho1_soft     -450.0000546186
  Total charge density (r-space):              -0.0000546186
  Total Rho_soft + Rho0_soft (g-space):        -0.0000590603

  Wfn fit exchange-correlation energy:                            82.1924647455
  Wfn fit soft/hard atomic rho1 Exc contribution:                 -2.3740997527

  Core Hamiltonian energy:                                        449.3725285486
  Hartree energy:                                                 889.5938954947
  Exchange-correlation energy:                                   -108.2356264382

  GAPW| Exc from hard and soft atomic rho1:                        -8.7099605804
  GAPW| local Eh = 1 center integrals:                           -300.4015637215
        Maximum deviation from MO S-orthonormality                    0.7496E-04
        Minimum/Maximum MO magnitude              0.3305E+00          0.1078E+01
    74 OT LS       0.16E-05  129.3                     -666.5053778191

  Trace(PS):                                  449.9999987531
  Electronic density on regular grids:       -444.3560116567        5.6439883433
  Core density on regular grids:              450.0000000000        0.0000000000
  Hard and soft densities (Lebedev):        -1545.2943821020    -1539.6503391401
  Total Rho_soft + Rho1_hard - Rho1_soft     -450.0000546186
  Total charge density (r-space):              -0.0000546186
  Total Rho_soft + Rho0_soft (g-space):        -0.0000590602

  Wfn fit exchange-correlation energy:                            82.1924647455
  Wfn fit soft/hard atomic rho1 Exc contribution:                 -2.3740997525

  Core Hamiltonian energy:                                        449.3725285498
  Hartree energy:                                                 889.5938954941
  Exchange-correlation energy:                                   -108.2356264379

  GAPW| Exc from hard and soft atomic rho1:                        -8.7099605809
  GAPW| local Eh = 1 center integrals:                           -300.4015637210
        Maximum deviation from MO S-orthonormality                    0.7496E-04
        Minimum/Maximum MO magnitude              0.3305E+00          0.1078E+01
    75 OT CG       0.16E-05  141.5     0.00000305      -666.5053778183  1.59E-09

  Trace(PS):                                  449.9999987530
  Electronic density on regular grids:       -444.3560116560        5.6439883440
  Core density on regular grids:              450.0000000000        0.0000000000
  Hard and soft densities (Lebedev):        -1545.2943820980    -1539.6503391356
  Total Rho_soft + Rho1_hard - Rho1_soft     -450.0000546184
  Total charge density (r-space):              -0.0000546184
  Total Rho_soft + Rho0_soft (g-space):        -0.0000590600

  Wfn fit exchange-correlation energy:                            82.1924647455
  Wfn fit soft/hard atomic rho1 Exc contribution:                 -2.3740997521

  Core Hamiltonian energy:                                        449.3725285523
  Hartree energy:                                                 889.5938954931
  Exchange-correlation energy:                                   -108.2356264375

  GAPW| Exc from hard and soft atomic rho1:                        -8.7099605819
  GAPW| local Eh = 1 center integrals:                           -300.4015637199
        Maximum deviation from MO S-orthonormality                    0.7496E-04
        Minimum/Maximum MO magnitude              0.3305E+00          0.1078E+01
    76 OT LS       0.32E-05  128.1                     -666.5053778168

  Trace(PS):                                  449.9999987528
  Electronic density on regular grids:       -444.3560116552        5.6439883448
  Core density on regular grids:              450.0000000000        0.0000000000
  Hard and soft densities (Lebedev):        -1545.2943820941    -1539.6503391311
  Total Rho_soft + Rho1_hard - Rho1_soft     -450.0000546183
  Total charge density (r-space):              -0.0000546183
  Total Rho_soft + Rho0_soft (g-space):        -0.0000590599

  Wfn fit exchange-correlation energy:                            82.1924647455
  Wfn fit soft/hard atomic rho1 Exc contribution:                 -2.3740997516

  Core Hamiltonian energy:                                        449.3725285548
  Hartree energy:                                                 889.5938954920
  Exchange-correlation energy:                                   -108.2356264370

  GAPW| Exc from hard and soft atomic rho1:                        -8.7099605829
  GAPW| local Eh = 1 center integrals:                           -300.4015637188
        Maximum deviation from MO S-orthonormality                    0.7497E-04
        Minimum/Maximum MO magnitude              0.3305E+00          0.1078E+01
    77 OT CG       0.32E-05  141.8     0.00000305      -666.5053778152  3.18E-09

  Trace(PS):                                  449.9999987525
  Electronic density on regular grids:       -444.3560116538        5.6439883462
  Core density on regular grids:              450.0000000000        0.0000000000
  Hard and soft densities (Lebedev):        -1545.2943820861    -1539.6503391220
  Total Rho_soft + Rho1_hard - Rho1_soft     -450.0000546180
  Total charge density (r-space):              -0.0000546180
  Total Rho_soft + Rho0_soft (g-space):        -0.0000590596

  Wfn fit exchange-correlation energy:                            82.1924647455
  Wfn fit soft/hard atomic rho1 Exc contribution:                 -2.3740997508

  Core Hamiltonian energy:                                        449.3725285597
  Hartree energy:                                                 889.5938954899
  Exchange-correlation energy:                                   -108.2356264361

  GAPW| Exc from hard and soft atomic rho1:                        -8.7099605848
  GAPW| local Eh = 1 center integrals:                           -300.4015637166
        Maximum deviation from MO S-orthonormality                    0.7497E-04
        Minimum/Maximum MO magnitude              0.3305E+00          0.1078E+01
    78 OT LS       0.64E-05  128.3                     -666.5053778120

  Trace(PS):                                  449.9999987522
  Electronic density on regular grids:       -444.3560116524        5.6439883476
  Core density on regular grids:              450.0000000000        0.0000000000
  Hard and soft densities (Lebedev):        -1545.2943820782    -1539.6503391130
  Total Rho_soft + Rho1_hard - Rho1_soft     -450.0000546177
  Total charge density (r-space):              -0.0000546177
  Total Rho_soft + Rho0_soft (g-space):        -0.0000590593

