 DBCSR| CPU Multiplication driver                                           BLAS (U)
 DBCSR| Multrec recursion limit                                              512 (U)
 DBCSR| Multiplication stack size                                           1000 (D)
 DBCSR| Maximum elements for images                                    UNLIMITED (U)
 DBCSR| Multiplicative factor virtual images                                   1 (U)
 DBCSR| Use multiplication densification                                       T (D)
 DBCSR| Multiplication size stacks                                             3 (U)
 DBCSR| Use memory pool for CPU allocation                                     F (U)
 DBCSR| Number of 3D layers                                               SINGLE (U)
 DBCSR| Use MPI memory allocation                                              F (U)
 DBCSR| Use RMA algorithm                                                      F (U)
 DBCSR| Use Communication thread                                               T (U)
 DBCSR| Communication thread load                                             87 (D)
 DBCSR| MPI: My process id                                                     0
 DBCSR| MPI: Number of processes                                              16
 DBCSR| OMP: Current number of threads                                         1
 DBCSR| OMP: Max number of threads                                             1
 DBCSR| Split modifier for TAS multiplication algorithm                  1.0E+00 (U)


  **** **** ******  **  PROGRAM STARTED AT               2025-10-13 12:32:51.252
 ***** ** ***  *** **   PROGRAM STARTED ON                            sebnode120
 **    ****   ******    PROGRAM STARTED BY                                luehrs
 ***** **    ** ** **   PROGRAM PROCESS ID                               1013297
  **** **  *******  **  PROGRAM STARTED IN /home/luehrs/PhD/Sodium_batteries/Sod
                                           ium-graphene-functional_groups/XPS_Fu
                                           nctional_groups/C_atom_XPS/Zigzag_non
                                           hydrogenated_edges

 CP2K| version string:                                       CP2K version 2023.1
 CP2K| source code revision number:                                  git:b888bd8
 CP2K| cp2kflags: omp libint fftw3 libxc elpa parallel scalapack spglib         
 CP2K| is freely available from                            https://www.cp2k.org/
 CP2K| Program compiled at                          Tue Jan 10 19:52:03 UTC 2023
 CP2K| Program compiled on                                            x86-ubc-01
 CP2K| Program compiled for                                Linux-x86_64-gfortran
 CP2K| Data directory path                                       /usr/share/cp2k
 CP2K| Input file name                                                 input.inp

 GLOBAL| Force Environment number                                              1
 GLOBAL| Basis set file name                                          BASIS_GW2X
 GLOBAL| Potential file name                                           POTENTIAL
 GLOBAL| MM Potential file name                                     MM_POTENTIAL
 GLOBAL| Coordinate file name                                        coords3.xyz
 GLOBAL| Method name                                                        CP2K
 GLOBAL| Project name                                                         HC
 GLOBAL| Run type                                                         ENERGY
 GLOBAL| FFT library                                                       FFTW3
 GLOBAL| Diagonalization library                                            ELPA
 GLOBAL| DGEMM library                                                      BLAS
 GLOBAL| Minimum number of eigenvectors for ELPA usage                        16
 GLOBAL| Orthonormality check for eigenvectors                          DISABLED
 GLOBAL| Matrix multiplication library                                 ScaLAPACK
 GLOBAL| All-to-all communication in single precision                          F
 GLOBAL| FFTs using library dependent lengths                                  F
 GLOBAL| Grid backend                                                       AUTO
 GLOBAL| Global print level                                                 HIGH
 GLOBAL| MPI I/O enabled                                                       T
 GLOBAL| Total number of message passing processes                            16
 GLOBAL| Number of threads for this process                                    1
 GLOBAL| This output is from process                                           0
 GLOBAL| Stack size for threads created by OpenMP (OMP_STACKSIZE)        default
 GLOBAL| CPU model name                 Intel(R) Xeon(R) Gold 6144 CPU @ 3.50GHz

 MEMORY| system memory details [Kb]
 MEMORY|                        rank 0           min           max       average
 MEMORY| MemTotal             65585096      65585096      65585096      65585096
 MEMORY| MemFree              62118976      62118976      62118976      62118976
 MEMORY| Buffers                306464        306464        306464        306464
 MEMORY| Cached                1171204       1171204       1171204       1171204
 MEMORY| Slab                   240776        240776        240776        240776
 MEMORY| SReclaimable           102084        102084        102084        102084
 MEMORY| MemLikelyFree        63698728      63698728      63698728      63698728


 *** Fundamental physical constants (SI units) ***

 *** Literature: B. J. Mohr and B. N. Taylor,
 ***             CODATA recommended values of the fundamental physical
 ***             constants: 2006, Web Version 5.1
 ***             http://physics.nist.gov/constants

 Speed of light in vacuum [m/s]                             2.99792458000000E+08
 Magnetic constant or permeability of vacuum [N/A**2]       1.25663706143592E-06
 Electric constant or permittivity of vacuum [F/m]          8.85418781762039E-12
 Planck constant (h) [J*s]                                  6.62606896000000E-34
 Planck constant (h-bar) [J*s]                              1.05457162825177E-34
 Elementary charge [C]                                      1.60217648700000E-19
 Electron mass [kg]                                         9.10938215000000E-31
 Electron g factor [ ]                                     -2.00231930436220E+00
 Proton mass [kg]                                           1.67262163700000E-27
 Fine-structure constant                                    7.29735253760000E-03
 Rydberg constant [1/m]                                     1.09737315685270E+07
 Avogadro constant [1/mol]                                  6.02214179000000E+23
 Boltzmann constant [J/K]                                   1.38065040000000E-23
 Atomic mass unit [kg]                                      1.66053878200000E-27
 Bohr radius [m]                                            5.29177208590000E-11

 *** Conversion factors ***

 [u] -> [a.u.]                                              1.82288848426455E+03
 [Angstrom] -> [Bohr] = [a.u.]                              1.88972613288564E+00
 [a.u.] = [Bohr] -> [Angstrom]                              5.29177208590000E-01
 [a.u.] -> [s]                                              2.41888432650478E-17
 [a.u.] -> [fs]                                             2.41888432650478E-02
 [a.u.] -> [J]                                              4.35974393937059E-18
 [a.u.] -> [N]                                              8.23872205491840E-08
 [a.u.] -> [K]                                              3.15774647902944E+05
 [a.u.] -> [kJ/mol]                                         2.62549961709828E+03
 [a.u.] -> [kcal/mol]                                       6.27509468713739E+02
 [a.u.] -> [Pa]                                             2.94210107994716E+13
 [a.u.] -> [bar]                                            2.94210107994716E+08
 [a.u.] -> [atm]                                            2.90362800883016E+08
 [a.u.] -> [eV]                                             2.72113838565563E+01
 [a.u.] -> [Hz]                                             6.57968392072181E+15
 [a.u.] -> [1/cm] (wave numbers)                            2.19474631370540E+05
 [a.u./Bohr**2] -> [1/cm]                                   5.14048714338585E+03
 

 CELL_TOP| Volume [angstrom^3]:                                     10209.400280
 CELL_TOP| Vector a [angstrom    19.648     0.000     0.000   |a| =    19.648000
 CELL_TOP| Vector b [angstrom    15.000    25.981     0.000   |b| =    30.000000
 CELL_TOP| Vector c [angstrom     0.000     0.000    20.000   |c| =    20.000000
 CELL_TOP| Angle (b,c), alpha [degree]:                                90.000000
 CELL_TOP| Angle (a,c), beta  [degree]:                                90.000000
 CELL_TOP| Angle (a,b), gamma [degree]:                                60.000000
 CELL_TOP| Numerically orthorhombic:                                          NO
 CELL_TOP| Periodicity                                                       XYZ


 SUBCELL GRID  INFO FOR THE NONBONDED NEIGHBOR LISTS

    NUMBER OF SUBCELLS             ::                   6         9         7
    NUMBER OF PERIODIC      IMAGES ::                   1         1         1
    NUMBER OF INTERACTING SUBCELLS ::                   2         2         2

 GENERATE|  Preliminary Number of Bonds generated:                             0
 GENERATE|  Achieved consistency in connectivity generation.

 CELL| Volume [angstrom^3]:                                         10209.400280
 CELL| Vector a [angstrom]:      19.648     0.000     0.000   |a| =    19.648000
 CELL| Vector b [angstrom]:      15.000    25.981     0.000   |b| =    30.000000
 CELL| Vector c [angstrom]:       0.000     0.000    20.000   |c| =    20.000000
 CELL| Angle (b,c), alpha [degree]:                                    90.000000
 CELL| Angle (a,c), beta  [degree]:                                    90.000000
 CELL| Angle (a,b), gamma [degree]:                                    60.000000
 CELL| Numerically orthorhombic:                                              NO
 CELL| Periodicity                                                           XYZ

 CELL_REF| Volume [angstrom^3]:                                     10209.400280
 CELL_REF| Vector a [angstrom    19.648     0.000     0.000   |a| =    19.648000
 CELL_REF| Vector b [angstrom    15.000    25.981     0.000   |b| =    30.000000
 CELL_REF| Vector c [angstrom     0.000     0.000    20.000   |c| =    20.000000
 CELL_REF| Angle (b,c), alpha [degree]:                                90.000000
 CELL_REF| Angle (a,c), beta  [degree]:                                90.000000
 CELL_REF| Angle (a,b), gamma [degree]:                                60.000000
 CELL_REF| Numerically orthorhombic:                                          NO
 CELL_REF| Periodicity                                                       XYZ

 *******************************************************************************
 *******************************************************************************
 **                                                                           **
 **     #####                         ##              ##                      **
 **    ##   ##            ##          ##              ##                      **
 **   ##     ##                       ##            ######                    **
 **   ##     ##  ##   ##  ##   #####  ##  ##   ####   ##    #####    #####    **
 **   ##     ##  ##   ##  ##  ##      ## ##   ##      ##   ##   ##  ##   ##   **
 **   ##  ## ##  ##   ##  ##  ##      ####     ###    ##   ######   ######    **
 **    ##  ###   ##   ##  ##  ##      ## ##      ##   ##   ##       ##        **
 **     #######   #####   ##   #####  ##  ##  ####    ##    #####   ##        **
 **           ##                                                    ##        **
 **                                                                           **
 **                                                ... make the atoms dance   **
 **                                                                           **
 **            Copyright (C) by CP2K developers group (2000-2022)             **
 **                      J. Chem. Phys. 152, 194103 (2020)                    **
 **                                                                           **
 *******************************************************************************

 RADII: ORBITAL BASIS in angstrom            Kind   Label     Radius  OCE Radius
                                                1   C       5.464310    5.464310
                                                2   Cx     10.586320   10.586320

 RADII: SHELL SETS OF ORBITAL BASIS in angstrom   Kind  Label   Set       Radius
                                                     1  C         1     5.464310
                                                     2  Cx        1     1.029760
                                                                  2     2.248558
                                                                  3     3.510222
                                                                  4     5.301536
                                                                  5     8.278841
                                                                  6     2.111957
                                                                  7     3.589446
                                                                  8     6.086067
                                                                  9    10.586320
                                                                 10     1.764030
                                                                 11     3.018919
                                                                 12     6.928919
                                                                 13     2.271820
                                                                 14     6.534266

 RADII: PRIMITIVE GAUSSIANS OF ORBITAL BASIS in anKindomLabel   Set       Radius
                                                     1  C         1     0.802859
                                                                        1.314668
                                                                        2.308781
                                                                        3.176889
                                                                        5.464310
                                                     2  Cx        1     0.020115
                                                                        0.053438
                                                                        0.114577
                                                                        0.218970
                                                                        0.387975
                                                                        0.647712
                                                                        1.029760
                                                     2  Cx        2     0.735149
                                                                        2.248558
                                                     2  Cx        3     3.510222
                                                     2  Cx        4     5.301536
                                                     2  Cx        5     8.278841
                                                     2  Cx        6     0.299696
                                                                        0.653823
                                                                        1.233581
                                                                        2.111957
                                                     2  Cx        7     3.589446
                                                     2  Cx        8     6.086067
                                                     2  Cx        9    10.586320
                                                     2  Cx       10     1.764030
                                                     2  Cx       11     3.018919
                                                     2  Cx       12     6.928919
                                                     2  Cx       13     2.271820
                                                     2  Cx       14     6.534266

 RADII: AUXILLIARY BASIS in angstrom         Kind   Label     Radius  OCE Radius
                                                          1   C         no basis
                                                          2   Cx        no basis

 RADII: SHELL SETS OF AUXILLIARY BASIS in angstromKind  Label   Set       Radius
                                                     1   C              no basis
                                                     2   Cx             no basis

 RADII: PRIMITIVE GAUSSIANS OF AUXILLIARY BASIS inKindstLabel   Set       Radius
                                                     1   C              no basis
                                                     2   Cx             no basis

 RADII: LOCAL RI BASIS in angstrom           Kind   Label     Radius  OCE Radius
                                                          1   C         no basis
                                                          2   Cx        no basis

 RADII: SHELL SETS OF LOCAL RI BASIS in angstrom  Kind  Label   Set       Radius
                                                     1   C              no basis
                                                     2   Cx             no basis

 RADII: PRIMITIVE GAUSSIANS OF LOCAL RI BASIS in aKindroLabel   Set       Radius
                                                     1   C              no basis
                                                     2   Cx             no basis

 RADII: CORE CHARGE DISTRIBUTIONS in angstrom          Kind   Label       Radius
                                                          1   C         1.376023
                                                          2   Cx        1.425687

 RADII: LOCAL PART OF GTH/ELP PP in angstrom           Kind   Label       Radius
                                                          1   C         0.699284

 RADII: NON-LOCAL PART OF GTH PP in angstrom           Kind   Label       Radius
                                                          1   C         0.838527

 RADII: ONE CENTER PROJECTORS in angstrom              Kind   Label       Radius
                                                          1   C         0.895066
                                                          2   Cx        0.895384

 DISTRIBUTION OF THE MOLECULES                    Process    Number of molecules
                                                        0                      7
                                                        1                      7
                                                        2                      7
                                                        3                      7
                                                        4                      7
                                                        5                      7
                                                        6                      7
                                                        7                      7
                                                        8                      5
                                                        9                      7
                                                       10                      7
                                                       11                      7
                                                       12                      7
                                                       13                      8
                                                       14                      7
                                                       15                      8
                                                      Sum                    112

  Process   Kind   Local molecules (global indices)
        0      1         1
               2
               3
               4
               5
               6
               7
               8
               9
              10
              11
              12
              13
              14
              15
              16
              17
              18
              19
              20
              21        21
              22
              23
              24
              25
              26
              27
              28
              29
              30
              31
              32
              33
              34
              35
              36
              37
              38
              39        39
              40
              41
              42
              43
              44
              45
              46
              47
              48
              49
              50
              51
              52
              53
              54
              55
              56
              57        57
              58
              59
              60
              61
              62
              63
              64
              65
              66
              67
              68
              69
              70
              71
              72
              73
              74
              75
              76        76
              77
              78
              79
              80
              81
              82
              83
              84
              85
              86
              87        87
              88
              89
              90
              91
              92
              93
              94
              95
              96
              97
              98
              99
             100
             101
             102
             103
             104
             105
             106       106
             107
             108
             109
             110
             111
             112

 DISTRIBUTION OF THE PARTICLES                    Process    Number of particles
                                                        0                      7
                                                        1                      7
                                                        2                      7
                                                        3                      7
                                                        4                      7
                                                        5                      7
                                                        6                      7
                                                        7                      7
                                                        8                      5
                                                        9                      7
                                                       10                      7
                                                       11                      7
                                                       12                      7
                                                       13                      8
                                                       14                      7
                                                       15                      8
                                                      Sum                    112

  Process   Kind   Local particles (global indices)
        0      1        1    21    39    57    76    87   106
               2

 DFT| Spin unrestricted (spin-polarized) Kohn-Sham calculation               UKS
 DFT| Multiplicity                                                             1
 DFT| Number of spin states                                                    2
 DFT| Charge                                                                   0
 DFT| Self-interaction correction (SIC)                                       NO
 DFT| Cutoffs: density                                              1.000000E-10
 DFT|          gradient                                             1.000000E-10
 DFT|          tau                                                  1.000000E-10
 DFT|          cutoff_smoothing_range                               0.000000E+00
 DFT| XC density smoothing                                                  NONE
 DFT| XC derivatives                                                          PW

 FUNCTIONAL| GGA_X_PBE:
 FUNCTIONAL| [1] J. P. Perdew, K. Burke, and M. Ernzerhof, Phys. Rev. Lett. 77, 
 FUNCTIONAL| 3865 (1996), doi: 10.1103/PhysRevLett.77.3865                      
 FUNCTIONAL| Optional external parameters:                                      
 FUNCTIONAL|  * Asymptotic value of the enhancement function                    
 FUNCTIONAL|  * Coefficient of the 2nd order expansion                          
 FUNCTIONAL| {scale=0.550, spin-polarized}                                      
 FUNCTIONAL| GGA_C_PBE:
 FUNCTIONAL| [1] J. P. Perdew, K. Burke, and M. Ernzerhof, Phys. Rev. Lett. 77, 
 FUNCTIONAL| 3865 (1996), doi: 10.1103/PhysRevLett.77.3865                      
 FUNCTIONAL| Optional external parameters:                                      
 FUNCTIONAL|  * beta constant                                                   
 FUNCTIONAL|  * (1 - ln(2))/Pi^2 in the PBE                                     
 FUNCTIONAL|  * Multiplies the A t^2 term. Used in the SPBE functional          
 FUNCTIONAL| {scale=1.000, spin-polarized}                                      


 QS| Method:                                                                GAPW
 QS| Density plane wave grid type                        NON-SPHERICAL FULLSPACE
 QS| Number of grid levels:                                                    5
 QS| Density cutoff [a.u.]:                                                300.0
 QS| Multi grid cutoff [a.u.]: 1) grid level                               300.0
 QS|                           2) grid level                               100.0
 QS|                           3) grid level                                33.3
 QS|                           4) grid level                                11.1
 QS|                           5) grid level                                 3.7
 QS| Grid level progression factor:                                          3.0
 QS| Relative density cutoff [a.u.]:                                        25.0
 QS| Interaction thresholds: eps_pgf_orb:                                1.0E-05
 QS|                         eps_filter_matrix:                          0.0E+00
 QS|                         eps_core_charge:                            1.0E-12
 QS|                         eps_rho_gspace:                             1.0E-10
 QS|                         eps_rho_rspace:                             1.0E-10
 QS|                         eps_gvg_rspace:                             1.0E-05
 QS|                         eps_ppl:                                    1.0E-02
 QS|                         eps_ppnl:                                   1.0E-07
 QS| GAPW|                   eps_fit:                                    1.0E-04
 QS| GAPW|                   eps_iso:                                    1.0E-12
 QS| GAPW|                   eps_svd:                                    1.0E-08
 QS| GAPW|                   eps_cpc:                                    1.0E-10
 QS| GAPW|   atom-r-grid: quadrature:                                     GC_LOG
 QS| GAPW|      atom-s-grid:  max l :                                          6
 QS| GAPW|      max_l_rho0 :                                                   2


 ATOMIC KIND INFORMATION

  1. Atomic kind: C                                     Number of atoms:     111

     Orbital Basis Set                                        DZVP-MOLOPT-SR-GTH

       Number of orbital shell sets:                                           1
       Number of orbital shells:                                               5
       Number of primitive Cartesian functions:                                5
       Number of Cartesian basis functions:                                   14
       Number of spherical basis functions:                                   13
       Norm type:                                                              2

       Normalised Cartesian orbitals:

                        Set   Shell   Orbital            Exponent    Coefficient

                          1       1    2s                5.605331       0.322515
                                                         2.113016       0.213043
                                                         0.769911      -0.209686
                                                         0.348157      -0.219794
                                                         0.128212      -0.022789

                          1       2    3s                5.605331       0.552234
                                                         2.113016       0.082072
                                                         0.769911       0.007843
                                                         0.348157       0.136893
                                                         0.128212       0.074283

                          1       3    3px               5.605331      -0.703879
                                                         2.113016      -0.642521
                                                         0.769911      -0.374851
                                                         0.348157      -0.139743
                                                         0.128212      -0.027849
                          1       3    3py               5.605331      -0.703879
                                                         2.113016      -0.642521
                                                         0.769911      -0.374851
                                                         0.348157      -0.139743
                                                         0.128212      -0.027849
                          1       3    3pz               5.605331      -0.703879
                                                         2.113016      -0.642521
                                                         0.769911      -0.374851
                                                         0.348157      -0.139743
                                                         0.128212      -0.027849

                          1       4    4px               5.605331      -0.480376
                                                         2.113016      -0.552894
                                                         0.769911      -0.316145
                                                         0.348157       0.210505
                                                         0.128212       0.076095
                          1       4    4py               5.605331      -0.480376
                                                         2.113016      -0.552894
                                                         0.769911      -0.316145
                                                         0.348157       0.210505
                                                         0.128212       0.076095
                          1       4    4pz               5.605331      -0.480376
                                                         2.113016      -0.552894
                                                         0.769911      -0.316145
                                                         0.348157       0.210505
                                                         0.128212       0.076095

                          1       5    4dx2              5.605331       0.640026
                                                         2.113016       0.274300
                                                         0.769911       0.446711
                                                         0.348157       0.028674
                                                         0.128212       0.029790
                          1       5    4dxy              5.605331       1.108557
                                                         2.113016       0.475102
                                                         0.769911       0.773726
                                                         0.348157       0.049666
                                                         0.128212       0.051599
                          1       5    4dxz              5.605331       1.108557
                                                         2.113016       0.475102
                                                         0.769911       0.773726
                                                         0.348157       0.049666
                                                         0.128212       0.051599
                          1       5    4dy2              5.605331       0.640026
                                                         2.113016       0.274300
                                                         0.769911       0.446711
                                                         0.348157       0.028674
                                                         0.128212       0.029790
                          1       5    4dyz              5.605331       1.108557
                                                         2.113016       0.475102
                                                         0.769911       0.773726
                                                         0.348157       0.049666
                                                         0.128212       0.051599
                          1       5    4dz2              5.605331       0.640026
                                                         2.113016       0.274300
                                                         0.769911       0.446711
                                                         0.348157       0.028674
                                                         0.128212       0.029790

     Auxiliary Fit Basis Set                                                FIT3

       Number of orbital shell sets:                                           6
       Number of orbital shells:                                               6
       Number of primitive Cartesian functions:                                6
       Number of Cartesian basis functions:                                   12
       Number of spherical basis functions:                                   12
       Norm type:                                                              2

       Normalised Cartesian orbitals:

                        Set   Shell   Orbital            Exponent    Coefficient

                          1       1    1s                0.143490       0.166160

                          2       1    1s                0.450840       0.392127

                          3       1    1s                4.420950       2.172935

                          4       1    1px               0.152150       0.135450
                          4       1    1py               0.152150       0.135450
                          4       1    1pz               0.152150       0.135450

                          5       1    1px               0.670820       0.865362
                          5       1    1py               0.670820       0.865362
                          5       1    1pz               0.670820       0.865362

                          6       1    1px               3.053900       5.754513
                          6       1    1py               3.053900       5.754513
                          6       1    1pz               3.053900       5.754513

       Atomic covalent radius [Angstrom]:                                  0.770

       Atomic van der Waals radius [Angstrom]:                             1.700

     The atoms of this atomic kind are PAW atoms (GAPW):
       Hard Gaussian function radius:                                      1.512
       Rho0 radius:                                                        1.512
       Maximum GTO radius used for PAW projector construction:            24.566

     GAPW Soft Basis Set                                 DZVP-MOLOPT-SR-GTH_soft

       Number of orbital shell sets:                                           1
       Number of orbital shells:                                               5
       Number of primitive Cartesian functions:                                4
       Number of Cartesian basis functions:                                   14
       Number of spherical basis functions:                                   13
       Norm type:                                                              2

       Normalised Cartesian orbitals:

                        Set   Shell   Orbital            Exponent    Coefficient

                          1       1    2s                2.113016       0.213043
                                                         0.769911      -0.209686
                                                         0.348157      -0.219794
                                                         0.128212      -0.022789

                          1       2    3s                2.113016       0.082072
                                                         0.769911       0.007843
                                                         0.348157       0.136893
                                                         0.128212       0.074283

                          1       3    3px               2.113016      -0.642521
                                                         0.769911      -0.374851
                                                         0.348157      -0.139743
                                                         0.128212      -0.027849
                          1       3    3py               2.113016      -0.642521
                                                         0.769911      -0.374851
                                                         0.348157      -0.139743
                                                         0.128212      -0.027849
                          1       3    3pz               2.113016      -0.642521
                                                         0.769911      -0.374851
                                                         0.348157      -0.139743
                                                         0.128212      -0.027849

                          1       4    4px               2.113016      -0.552894
                                                         0.769911      -0.316145
                                                         0.348157       0.210505
                                                         0.128212       0.076095
                          1       4    4py               2.113016      -0.552894
                                                         0.769911      -0.316145
                                                         0.348157       0.210505
                                                         0.128212       0.076095
                          1       4    4pz               2.113016      -0.552894
                                                         0.769911      -0.316145
                                                         0.348157       0.210505
                                                         0.128212       0.076095

                          1       5    4dx2              2.113016       0.274300
                                                         0.769911       0.446711
                                                         0.348157       0.028674
                                                         0.128212       0.029790
                          1       5    4dxy              2.113016       0.475102
                                                         0.769911       0.773726
                                                         0.348157       0.049666
                                                         0.128212       0.051599
                          1       5    4dxz              2.113016       0.475102
                                                         0.769911       0.773726
                                                         0.348157       0.049666
                                                         0.128212       0.051599
                          1       5    4dy2              2.113016       0.274300
                                                         0.769911       0.446711
                                                         0.348157       0.028674
                                                         0.128212       0.029790
                          1       5    4dyz              2.113016       0.475102
                                                         0.769911       0.773726
                                                         0.348157       0.049666
                                                         0.128212       0.051599
                          1       5    4dz2              2.113016       0.274300
                                                         0.769911       0.446711
                                                         0.348157       0.028674
                                                         0.128212       0.029790

     GTH Potential information for                                       GTH-PBE

       Description:                       Goedecker-Teter-Hutter pseudopotential
                                           Goedecker et al., PRB 54, 1703 (1996)
                                          Hartwigsen et al., PRB 58, 3641 (1998)
                                                      Krack, TCA 114, 145 (2005)

       Gaussian exponent of the core charge distribution:               4.364419
       Electronic configuration (s p d ...):                               2   2

       Parameters of the local part of the GTH pseudopotential:

                          rloc        C1          C2          C3          C4
                        0.338471   -8.803674    1.339211

       Parameters of the non-local part of the GTH pseudopotential:

                   l      r(l)      h(i,j,l)

                   0    0.302576    9.622487
                   1    0.291507

  2. Atomic kind: Cx                                    Number of atoms:       1

     Orbital Basis Set                                               aug-pcseg-2

       Number of orbital shell sets:                                          14
       Number of orbital shells:                                              14
       Number of primitive Cartesian functions:                               24
       Number of Cartesian basis functions:                                   55
       Number of spherical basis functions:                                   46
       Norm type:                                                              2

       Normalised Cartesian orbitals:

                        Set   Shell   Orbital            Exponent    Coefficient

                          1       1    1s             7319.990000       0.349375
                                                      1098.180000       0.650557
                                                       250.014000       1.096680
                                                        70.758600       1.627573
                                                        22.859500       1.933206
                                                         8.039360       1.515585
                                                         2.893090       0.510144

                          2       1    1s                5.216400      -0.507287
                                                         0.556124       0.494060

                          3       1    1s                0.228813       0.235787

                          4       1    1s                0.093634       0.120638

                          5       1    1s                0.035418       0.058187

                          6       1    1px              33.985500       1.362795
                                                         7.729570       1.535057
                                                         2.249540       1.244013
                                                         0.767681       0.729116
                          6       1    1py              33.985500       1.362795
                                                         7.729570       1.535057
                                                         2.249540       1.244013
                                                         0.767681       0.729116
                          6       1    1pz              33.985500       1.362795
                                                         7.729570       1.535057
                                                         2.249540       1.244013
                                                         0.767681       0.729116

                          7       1    1px               0.263283       0.268824
                          7       1    1py               0.263283       0.268824
                          7       1    1pz               0.263283       0.268824

                          8       1    1px               0.084874       0.065300
                          8       1    1py               0.084874       0.065300
                          8       1    1pz               0.084874       0.065300

                          9       1    1px               0.025704       0.014670
                          9       1    1py               0.025704       0.014670
                          9       1    1pz               0.025704       0.014670

                         10       1    1dx2              1.400000       2.965743
                         10       1    1dxy              1.400000       5.136818
                         10       1    1dxz              1.400000       5.136818
                         10       1    1dy2              1.400000       2.965743
                         10       1    1dyz              1.400000       5.136818
                         10       1    1dz2              1.400000       2.965743

                         11       1    1dx2              0.450000       0.406941
                         11       1    1dxy              0.450000       0.704842
                         11       1    1dxz              0.450000       0.704842
                         11       1    1dy2              0.450000       0.406941
                         11       1    1dyz              0.450000       0.704842
                         11       1    1dz2              0.450000       0.406941

                         12       1    1dx2              0.077111       0.018572
                         12       1    1dxy              0.077111       0.032168
                         12       1    1dxz              0.077111       0.032168
                         12       1    1dy2              0.077111       0.018572
                         12       1    1dyz              0.077111       0.032168
                         12       1    1dz2              0.077111       0.018572

                         13       1    1fx3              0.950000       1.311694
                         13       1    1fx2y             0.950000       2.933037
                         13       1    1fx2z             0.950000       2.933037
                         13       1    1fxy2             0.950000       2.933037
                         13       1    1fxyz             0.950000       5.080169
                         13       1    1fxz2             0.950000       2.933037
                         13       1    1fy3              0.950000       1.311694
                         13       1    1fy2z             0.950000       2.933037
                         13       1    1fyz2             0.950000       2.933037
                         13       1    1fz3              0.950000       1.311694

                         14       1    1fx3              0.102810       0.008811
                         14       1    1fx2y             0.102810       0.019702
                         14       1    1fx2z             0.102810       0.019702
                         14       1    1fxy2             0.102810       0.019702
                         14       1    1fxyz             0.102810       0.034126
                         14       1    1fxz2             0.102810       0.019702
                         14       1    1fy3              0.102810       0.008811
                         14       1    1fy2z             0.102810       0.019702
                         14       1    1fyz2             0.102810       0.019702
                         14       1    1fz3              0.102810       0.008811

     Auxiliary Fit Basis Set                                          aug-admm-2

       Number of orbital shell sets:                                           3
       Number of orbital shells:                                              10
       Number of primitive Cartesian functions:                               12
       Number of Cartesian basis functions:                                   26
       Number of spherical basis functions:                                   24
       Norm type:                                                              2

       Normalised Cartesian orbitals:

                        Set   Shell   Orbital            Exponent    Coefficient

                          1       1    1s              109.016000       4.923462
                                                        18.264600       5.452682
                                                         4.347920       0.000000
                                                         0.481253       0.000000
                                                         0.143588       0.000000
                                                         0.040429       0.000000

                          1       2    2s              109.016000       0.000000
                                                        18.264600       0.000000
                                                         4.347920       2.145958
                                                         0.481253       0.000000
                                                         0.143588       0.000000
                                                         0.040429       0.000000

                          1       3    3s              109.016000       0.000000
                                                        18.264600       0.000000
                                                         4.347920       0.000000
                                                         0.481253       0.411804
                                                         0.143588       0.000000
                                                         0.040429       0.000000

                          1       4    4s              109.016000       0.000000
                                                        18.264600       0.000000
                                                         4.347920       0.000000
                                                         0.481253       0.000000
                                                         0.143588       0.166245
                                                         0.040429       0.000000

                          1       5    5s              109.016000       0.000000
                                                        18.264600       0.000000
                                                         4.347920       0.000000
                                                         0.481253       0.000000
                                                         0.143588       0.000000
                                                         0.040429       0.064258

                          2       1    1px               2.823390       1.538017
                                                         0.590232       0.604745
                                                         0.152426       0.000000
                                                         0.038107       0.000000
                          2       1    1py               2.823390       1.538017
                                                         0.590232       0.604745
                                                         0.152426       0.000000
                                                         0.038107       0.000000
                          2       1    1pz               2.823390       1.538017
                                                         0.590232       0.604745
                                                         0.152426       0.000000
                                                         0.038107       0.000000

                          2       2    2px               2.823390       0.000000
                                                         0.590232       0.000000
                                                         0.152426       0.135758
                                                         0.038107       0.000000
                          2       2    2py               2.823390       0.000000
                                                         0.590232       0.000000
                                                         0.152426       0.135758
                                                         0.038107       0.000000
                          2       2    2pz               2.823390       0.000000
                                                         0.590232       0.000000
                                                         0.152426       0.135758
                                                         0.038107       0.000000

                          2       3    3px               2.823390       0.000000
                                                         0.590232       0.000000
                                                         0.152426       0.000000
                                                         0.038107       0.023999
                          2       3    3py               2.823390       0.000000
                                                         0.590232       0.000000
                                                         0.152426       0.000000
                                                         0.038107       0.023999
                          2       3    3pz               2.823390       0.000000
                                                         0.590232       0.000000
                                                         0.152426       0.000000
                                                         0.038107       0.023999

                          3       1    1dx2              0.800000       1.113825
                                                         0.114320       0.000000
                          3       1    1dxy              0.800000       1.929201
                                                         0.114320       0.000000
                          3       1    1dxz              0.800000       1.929201
                                                         0.114320       0.000000
                          3       1    1dy2              0.800000       1.113825
                                                         0.114320       0.000000
                          3       1    1dyz              0.800000       1.929201
                                                         0.114320       0.000000
                          3       1    1dz2              0.800000       1.113825
                                                         0.114320       0.000000

                          3       2    2dx2              0.800000       0.000000
                                                         0.114320       0.036993
                          3       2    2dxy              0.800000       0.000000
                                                         0.114320       0.064074
                          3       2    2dxz              0.800000       0.000000
                                                         0.114320       0.064074
                          3       2    2dy2              0.800000       0.000000
                                                         0.114320       0.036993
                          3       2    2dyz              0.800000       0.000000
                                                         0.114320       0.064074
                          3       2    2dz2              0.800000       0.000000
                                                         0.114320       0.036993

       Atomic covalent radius [Angstrom]:                                  0.770

       Atomic van der Waals radius [Angstrom]:                             1.700

     The atoms of this atomic kind are PAW atoms (GAPW):
       Hard Gaussian function radius:                                      1.512
       Rho0 radius:                                                        1.512
       Maximum GTO radius used for PAW projector construction:            24.566

     GAPW Soft Basis Set                                        aug-pcseg-2_soft

       Number of orbital shell sets:                                          14
       Number of orbital shells:                                              14
       Number of primitive Cartesian functions:                               15
       Number of Cartesian basis functions:                                   55
       Number of spherical basis functions:                                   46
       Norm type:                                                              2

       Normalised Cartesian orbitals:

                        Set   Shell   Orbital            Exponent    Coefficient

                          1       1    1s                2.893090       0.510144

                          2       1    1s                0.556124       0.494060

                          3       1    1s                0.228813       0.235787

                          4       1    1s                0.093634       0.120638

                          5       1    1s                0.035418       0.058187

                          6       1    1px               2.249540       1.244013
                                                         0.767681       0.729116
                          6       1    1py               2.249540       1.244013
                                                         0.767681       0.729116
                          6       1    1pz               2.249540       1.244013
                                                         0.767681       0.729116

                          7       1    1px               0.263283       0.268824
                          7       1    1py               0.263283       0.268824
                          7       1    1pz               0.263283       0.268824

                          8       1    1px               0.084874       0.065300
                          8       1    1py               0.084874       0.065300
                          8       1    1pz               0.084874       0.065300

                          9       1    1px               0.025704       0.014670
                          9       1    1py               0.025704       0.014670
                          9       1    1pz               0.025704       0.014670

                         10       1    1dx2              1.400000       2.965743
                         10       1    1dxy              1.400000       5.136818
                         10       1    1dxz              1.400000       5.136818
                         10       1    1dy2              1.400000       2.965743
                         10       1    1dyz              1.400000       5.136818
                         10       1    1dz2              1.400000       2.965743

                         11       1    1dx2              0.450000       0.406941
                         11       1    1dxy              0.450000       0.704842
                         11       1    1dxz              0.450000       0.704842
                         11       1    1dy2              0.450000       0.406941
                         11       1    1dyz              0.450000       0.704842
                         11       1    1dz2              0.450000       0.406941

                         12       1    1dx2              0.077111       0.018572
                         12       1    1dxy              0.077111       0.032168
                         12       1    1dxz              0.077111       0.032168
                         12       1    1dy2              0.077111       0.018572
                         12       1    1dyz              0.077111       0.032168
                         12       1    1dz2              0.077111       0.018572

                         13       1    1fx3              0.950000       1.311694
                         13       1    1fx2y             0.950000       2.933037
                         13       1    1fx2z             0.950000       2.933037
                         13       1    1fxy2             0.950000       2.933037
                         13       1    1fxyz             0.950000       5.080169
                         13       1    1fxz2             0.950000       2.933037
                         13       1    1fy3              0.950000       1.311694
                         13       1    1fy2z             0.950000       2.933037
                         13       1    1fyz2             0.950000       2.933037
                         13       1    1fz3              0.950000       1.311694

                         14       1    1fx3              0.102810       0.008811
                         14       1    1fx2y             0.102810       0.019702
                         14       1    1fx2z             0.102810       0.019702
                         14       1    1fxy2             0.102810       0.019702
                         14       1    1fxyz             0.102810       0.034126
                         14       1    1fxz2             0.102810       0.019702
                         14       1    1fy3              0.102810       0.008811
                         14       1    1fy2z             0.102810       0.019702
                         14       1    1fyz2             0.102810       0.019702
                         14       1    1fz3              0.102810       0.008811

     AE Potential information for                                            ALL

       Description:                                       All-electron potential
                                          Krack, Parrinello, PCCP 2, 2105 (2000)

       Gaussian exponent of the core charge distribution:               4.109048
       Electronic configuration (s p d ...):                           4   2   0


 MOLECULE KIND INFORMATION


 All atoms are their own molecule, skipping detailed information


 TOTAL NUMBERS AND MAXIMUM NUMBERS

  Total number of            - Atomic kinds:                                   2
                             - Atoms:                                        112
                             - Shell sets:                                   125
                             - Shells:                                       569
                             - Primitive Cartesian functions:                579
                             - Cartesian basis functions:                   1609
                             - Spherical basis functions:                   1489

  Maximum angular momentum of- Orbital basis functions:                        3
                             - Local part of the GTH pseudopotential:          2
                             - Non-local part of the GTH pseudopotential:      0

  AUX_FIT ADMM-Basis: 
  Total number of            - Shell sets:                                   669
                             - Shells:                                       676
                             - Primitive Cartesian functions:                678
                             - Cartesian basis functions:                   1358
                             - Spherical basis functions:                   1356
                               Maximum angular momentum                        2


 MODULE QUICKSTEP: ATOMIC COORDINATES IN ANGSTROM

   Atom Kind Element         X             Y             Z       Z(eff)     Mass
      1    1 C     6      8.598560     14.969420      0.049760   4.0000  12.0107
      2    1 C     6      9.826140     15.656290      0.058220   4.0000  12.0107
      3    1 C     6     11.052880     14.969000      0.054670   4.0000  12.0107
      4    1 C     6     12.283110     15.655260      0.044720   4.0000  12.0107
      5    1 C     6     13.505620     14.966540      0.016950   4.0000  12.0107
      6    2 C     6     14.739720     15.653160     -0.014180   6.0000  12.0107
      7    1 C     6     15.952570     14.960560     -0.050350   4.0000  12.0107
      8    1 C     6     17.195040     15.648820     -0.067890   4.0000  12.0107
      9    1 C     6     18.392180     14.967040     -0.109630   4.0000  12.0107
     10    1 C     6     19.651150     15.755930     -0.102180   4.0000  12.0107
     11    1 C     6     20.907350     14.966570     -0.133120   4.0000  12.0107
     12    1 C     6     22.105510     15.648850     -0.120630   4.0000  12.0107
     13    1 C     6     23.347360     14.961230     -0.098400   4.0000  12.0107
     14    1 C     6     24.560490     15.653600     -0.050900   4.0000  12.0107
     15    1 C     6     25.794460     14.967680     -0.010750   4.0000  12.0107
     16    1 C     6     27.017260     15.656220      0.032370   4.0000  12.0107
     17    1 C     6     25.789430     13.517350     -0.017150   4.0000  12.0107
     18    1 C     6     23.336850     13.516010     -0.104110   4.0000  12.0107
     19    1 C     6     20.879740     13.525650     -0.144420   4.0000  12.0107
     20    1 C     6     18.417640     13.525650     -0.130630   4.0000  12.0107
     21    1 C     6     15.961270     13.515170     -0.066360   4.0000  12.0107
     22    1 C     6     14.732150     12.802160     -0.034440   4.0000  12.0107
     23    1 C     6     13.508820     13.516290      0.008870   4.0000  12.0107
     24    1 C     6     12.278170     12.803430      0.034170   4.0000  12.0107
     25    1 C     6     11.053080     13.516920      0.051820   4.0000  12.0107
     26    1 C     6      9.824030     12.803940      0.053750   4.0000  12.0107
     27    1 C     6      8.596380     13.517270      0.046340   4.0000  12.0107
     28    1 C     6      7.370150     12.803970      0.021340   4.0000  12.0107
     29    1 C     6     24.564810     12.803520     -0.062570   4.0000  12.0107
     30    1 C     6     22.105940     12.807390     -0.134380   4.0000  12.0107
     31    1 C     6     19.647950     12.810160     -0.146450   4.0000  12.0107
     32    1 C     6     17.190490     12.806820     -0.109720   4.0000  12.0107
     33    1 C     6     24.561080     11.366020     -0.065120   4.0000  12.0107
     34    1 C     6     23.330640     10.652670     -0.104150   4.0000  12.0107
     35    1 C     6     22.102880     11.367740     -0.132210   4.0000  12.0107
     36    1 C     6     20.874620     10.654250     -0.136950   4.0000  12.0107
     37    1 C     6     19.646130     11.374400     -0.143790   4.0000  12.0107
     38    1 C     6     18.416670     10.653860     -0.130030   4.0000  12.0107
     39    1 C     6     17.189350     11.366840     -0.112920   4.0000  12.0107
     40    1 C     6     15.960670     10.650590     -0.077990   4.0000  12.0107
     41    1 C     6     14.731610     11.364290     -0.043220   4.0000  12.0107
     42    1 C     6     13.504980     10.649600     -0.012790   4.0000  12.0107
     43    1 C     6     12.276730     11.366060      0.024840   4.0000  12.0107
     44    1 C     6     11.049640     10.651010      0.037490   4.0000  12.0107
     45    1 C     6      9.822030     11.367000      0.047760   4.0000  12.0107
     46    1 C     6      8.593150     10.651190      0.035570   4.0000  12.0107
     47    1 C     6      7.367330     11.366620      0.016610   4.0000  12.0107
     48    1 C     6      6.137640     10.650800     -0.025420   4.0000  12.0107
     49    1 C     6      6.137060      9.216020     -0.027810   4.0000  12.0107
     50    1 C     6      7.364420      8.500240     -0.001880   4.0000  12.0107
     51    1 C     6      8.592190      9.215360      0.017500   4.0000  12.0107
     52    1 C     6      9.820030      8.499930      0.001390   4.0000  12.0107
     53    1 C     6     11.048690      9.215300      0.017490   4.0000  12.0107
     54    1 C     6     12.275530      8.499830     -0.001610   4.0000  12.0107
     55    1 C     6     13.504350      9.215060     -0.020510   4.0000  12.0107
     56    1 C     6     14.731480      8.500150     -0.047710   4.0000  12.0107
     57    1 C     6     15.959760      9.216230     -0.074390   4.0000  12.0107
     58    1 C     6     17.188150      8.500530     -0.091410   4.0000  12.0107
     59    1 C     6     18.416000      9.217740     -0.110350   4.0000  12.0107
     60    1 C     6     19.644140      8.500480     -0.093640   4.0000  12.0107
     61    1 C     6     20.873560      9.218120     -0.112490   4.0000  12.0107
     62    1 C     6     22.100570      8.501370     -0.092730   4.0000  12.0107
     63    1 C     6     23.332690      9.219860     -0.091970   4.0000  12.0107
     64    1 C     6     22.098840      7.066050     -0.062520   4.0000  12.0107
     65    1 C     6     20.871230      6.350990     -0.050490   4.0000  12.0107
     66    1 C     6     19.643130      7.066770     -0.062960   4.0000  12.0107
     67    1 C     6     18.413950      6.350540     -0.053190   4.0000  12.0107
     68    1 C     6     17.187530      7.065060     -0.064700   4.0000  12.0107
     69    1 C     6     15.957840      6.349320     -0.052520   4.0000  12.0107
     70    1 C     6     14.730650      7.064000     -0.047770   4.0000  12.0107
     71    1 C     6     13.502120      6.348750     -0.041740   4.0000  12.0107
     72    1 C     6     12.274280      7.064020     -0.028300   4.0000  12.0107
     73    1 C     6     11.046290      6.349040     -0.035870   4.0000  12.0107
     74    1 C     6      9.818890      7.064410     -0.026600   4.0000  12.0107
     75    1 C     6      8.590280      6.349260     -0.035700   4.0000  12.0107
     76    1 C     6      7.363520      7.064460     -0.028120   4.0000  12.0107
     77    1 C     6      6.134440      6.349340     -0.041620   4.0000  12.0107
     78    1 C     6      4.907260      7.064910     -0.049530   4.0000  12.0107
     79    1 C     6      4.909740      8.501490     -0.056750   4.0000  12.0107
     80    1 C     6      3.679070      6.350050     -0.050180   4.0000  12.0107
     81    1 C     6      3.676940      4.911000     -0.034950   4.0000  12.0107
     82    1 C     6      4.903810      4.198440     -0.036170   4.0000  12.0107
     83    1 C     6      6.132310      4.910100     -0.044720   4.0000  12.0107
     84    1 C     6      7.360070      4.197490     -0.047140   4.0000  12.0107
     85    1 C     6      8.588330      4.909510     -0.046440   4.0000  12.0107
     86    1 C     6      9.815800      4.196820     -0.048640   4.0000  12.0107
     87    1 C     6     11.044710      4.909320     -0.046460   4.0000  12.0107
     88    1 C     6     12.271570      4.197170     -0.047900   4.0000  12.0107
     89    1 C     6     13.500700      4.909620     -0.046930   4.0000  12.0107
     90    1 C     6     14.727920      4.197890     -0.045280   4.0000  12.0107
     91    1 C     6     15.956220      4.910370     -0.043850   4.0000  12.0107
     92    1 C     6     17.184190      4.198480     -0.029830   4.0000  12.0107
     93    1 C     6     18.412260      4.911090     -0.030880   4.0000  12.0107
     94    1 C     6     19.639920      4.198890     -0.009970   4.0000  12.0107
     95    1 C     6     20.869120      4.911460     -0.024860   4.0000  12.0107
     96    1 C     6     19.638370      2.747660      0.028300   4.0000  12.0107
     97    1 C     6     18.409840      2.060860      0.032260   4.0000  12.0107
     98    1 C     6     17.182720      2.746780     -0.007350   4.0000  12.0107
     99    1 C     6     15.954460      2.059510     -0.022560   4.0000  12.0107
    100    1 C     6     14.726840      2.745960     -0.040770   4.0000  12.0107
    101    1 C     6     13.498640      2.059230     -0.045430   4.0000  12.0107
    102    1 C     6     12.270340      2.745370     -0.048580   4.0000  12.0107
    103    1 C     6     11.042330      2.058560     -0.049310   4.0000  12.0107
    104    1 C     6      9.814450      2.745030     -0.050240   4.0000  12.0107
    105    1 C     6      8.585650      2.058710     -0.049740   4.0000  12.0107
    106    1 C     6      6.129390      2.059630     -0.035900   4.0000  12.0107
    107    1 C     6      7.358570      2.745680     -0.047140   4.0000  12.0107
    108    1 C     6      4.902170      2.746560     -0.020920   4.0000  12.0107
    109    1 C     6      3.674230      2.060230      0.018230   4.0000  12.0107
    110    1 C     6      2.446190      2.747330      0.021180   4.0000  12.0107
    111    1 C     6      2.447660      4.198900     -0.014620   4.0000  12.0107
    112    1 C     6      1.218190      2.061260      0.047700   4.0000  12.0107


 REQUESTED STRUCTURE DATA


 SCF PARAMETERS         Density guess:                                    ATOMIC
                        --------------------------------------------------------
                        max_scf:                                             100
                        max_scf_history:                                       0
                        max_diis:                                              4
                        --------------------------------------------------------
                        eps_scf:                                        1.00E-07
                        eps_scf_history:                                0.00E+00
                        eps_diis:                                       1.00E-01
                        eps_eigval:                                     1.00E-05
                        --------------------------------------------------------
                        level_shift [a.u.]:                             0.000000
                        --------------------------------------------------------
                        Outer loop SCF in use 
                        No variables optimised in outer loop
                        eps_scf                                         1.00E-07
                        max_scf                                               40
                        No outer loop optimization
                        step_size                                       5.00E-01

 PW_GRID| Information for grid number                                          1
 PW_GRID| Grid distributed over                                    16 processors
 PW_GRID| Real space group dimensions                                    16    1
 PW_GRID| the grid is blocked:                                                NO
 PW_GRID| Cutoff [a.u.]                                                    300.0
 PW_GRID| spherical cutoff:                                                   NO
 PW_GRID|   Bounds   1           -150     149                Points:         300
 PW_GRID|   Bounds   2           -225     224                Points:         450
 PW_GRID|   Bounds   3           -150     149                Points:         300
 PW_GRID| Volume element (a.u.^3)  0.1701E-02     Volume (a.u.^3)     68896.4490
 PW_GRID| Grid span                                                    FULLSPACE
 PW_GRID|   Distribution                         Average         Max         Min
 PW_GRID|   G-Vectors                          2531250.0     2531400     2531100
 PW_GRID|   G-Rays                                8437.5        8438        8437
 PW_GRID|   Real Space Points                  2531250.0     2565000     2430000

 PW_GRID| Information for grid number                                          2
 PW_GRID| Number of the reference grid                                         1
 PW_GRID| Grid distributed over                                    16 processors
 PW_GRID| Real space group dimensions                                    16    1
 PW_GRID| the grid is blocked:                                                NO
 PW_GRID| Cutoff [a.u.]                                                    100.0
 PW_GRID| spherical cutoff:                                                   NO
 PW_GRID|   Bounds   1            -90      89                Points:         180
 PW_GRID|   Bounds   2           -128     127                Points:         256
 PW_GRID|   Bounds   3            -90      89                Points:         180
 PW_GRID| Volume element (a.u.^3)  0.8306E-02     Volume (a.u.^3)     68896.4490
 PW_GRID| Grid span                                                    FULLSPACE
 PW_GRID|   Distribution                         Average         Max         Min
 PW_GRID|   G-Vectors                           518400.0      519300      517860
 PW_GRID|   G-Rays                                2880.0        2885        2877
 PW_GRID|   Real Space Points                   518400.0      552960      506880

 PW_GRID| Information for grid number                                          3
 PW_GRID| Number of the reference grid                                         1
 PW_GRID| Grid distributed over                                    16 processors
 PW_GRID| Real space group dimensions                                    16    1
 PW_GRID| the grid is blocked:                                                NO
 PW_GRID| Cutoff [a.u.]                                                     33.3
 PW_GRID| spherical cutoff:                                                   NO
 PW_GRID|   Bounds   1            -50      49                Points:         100
 PW_GRID|   Bounds   2            -75      74                Points:         150
 PW_GRID|   Bounds   3            -50      49                Points:         100
 PW_GRID| Volume element (a.u.^3)  0.4593E-01     Volume (a.u.^3)     68896.4490
 PW_GRID| Grid span                                                    FULLSPACE
 PW_GRID|   Distribution                         Average         Max         Min
 PW_GRID|   G-Vectors                            93750.0       94000       93500
 PW_GRID|   G-Rays                                 937.5         940         935
 PW_GRID|   Real Space Points                    93750.0      105000       90000

 PW_GRID| Information for grid number                                          4
 PW_GRID| Number of the reference grid                                         1
 PW_GRID| Grid distributed over                                    16 processors
 PW_GRID| Real space group dimensions                                    16    1
 PW_GRID| the grid is blocked:                                                NO
[...]
    17 OT CG       0.24E-07  160.3     0.00000524      -666.4853896977  7.29E-11

  Trace(PS):                                  449.9999967702
  Electronic density on regular grids:       -444.3781041117        5.6218958883
  Core density on regular grids:              450.0000000000        0.0000000000
  Hard and soft densities (Lebedev):        -1536.3970470976    -1530.7750976379
  Total Rho_soft + Rho1_hard - Rho1_soft     -450.0000535714
  Total charge density (r-space):              -0.0000535714
  Total Rho_soft + Rho0_soft (g-space):        -0.0000579993

  Wfn fit exchange-correlation energy:                            82.0994692066
  Wfn fit soft/hard atomic rho1 Exc contribution:                 -2.3698524013

  Core Hamiltonian energy:                                        448.5531372703
  Hartree energy:                                                 890.3008038025
  Exchange-correlation energy:                                   -108.1290848617

  GAPW| Exc from hard and soft atomic rho1:                        -8.6899926380
  GAPW| local Eh = 1 center integrals:                           -300.4846713300
        Maximum deviation from MO S-orthonormality                    0.1516E-03
        Minimum/Maximum MO magnitude              0.3402E+00          0.1082E+01
    18 OT LS       0.48E-07  144.9                     -666.4853896976

  Trace(PS):                                  449.9999967702
  Electronic density on regular grids:       -444.3781041117        5.6218958883
  Core density on regular grids:              450.0000000000        0.0000000000
  Hard and soft densities (Lebedev):        -1536.3970470974    -1530.7750976377
  Total Rho_soft + Rho1_hard - Rho1_soft     -450.0000535714
  Total charge density (r-space):              -0.0000535714
  Total Rho_soft + Rho0_soft (g-space):        -0.0000579993

  Wfn fit exchange-correlation energy:                            82.0994692066
  Wfn fit soft/hard atomic rho1 Exc contribution:                 -2.3698524013

  Core Hamiltonian energy:                                        448.5531372703
  Hartree energy:                                                 890.3008038026
  Exchange-correlation energy:                                   -108.1290848617

  GAPW| Exc from hard and soft atomic rho1:                        -8.6899926380
  GAPW| local Eh = 1 center integrals:                           -300.4846713300
        Maximum deviation from MO S-orthonormality                    0.1516E-03
        Minimum/Maximum MO magnitude              0.3402E+00          0.1082E+01
    19 OT CG       0.48E-07  160.2     0.00000524      -666.4853896975  1.45E-10

  Trace(PS):                                  449.9999967702
  Electronic density on regular grids:       -444.3781041117        5.6218958883
  Core density on regular grids:              450.0000000000        0.0000000000
  Hard and soft densities (Lebedev):        -1536.3970470972    -1530.7750976375
  Total Rho_soft + Rho1_hard - Rho1_soft     -450.0000535714
  Total charge density (r-space):              -0.0000535714
  Total Rho_soft + Rho0_soft (g-space):        -0.0000579993

  Wfn fit exchange-correlation energy:                            82.0994692066
  Wfn fit soft/hard atomic rho1 Exc contribution:                 -2.3698524013

  Core Hamiltonian energy:                                        448.5531372704
  Hartree energy:                                                 890.3008038026
  Exchange-correlation energy:                                   -108.1290848617

  GAPW| Exc from hard and soft atomic rho1:                        -8.6899926380
  GAPW| local Eh = 1 center integrals:                           -300.4846713300
        Maximum deviation from MO S-orthonormality                    0.1516E-03
        Minimum/Maximum MO magnitude              0.3402E+00          0.1082E+01
    20 OT LS       0.96E-07  145.0                     -666.4853896974

  Trace(PS):                                  449.9999967701
  Electronic density on regular grids:       -444.3781041117        5.6218958883
  Core density on regular grids:              450.0000000000        0.0000000000
  Hard and soft densities (Lebedev):        -1536.3970470969    -1530.7750976372
  Total Rho_soft + Rho1_hard - Rho1_soft     -450.0000535714
  Total charge density (r-space):              -0.0000535714
  Total Rho_soft + Rho0_soft (g-space):        -0.0000579993

  Wfn fit exchange-correlation energy:                            82.0994692066
  Wfn fit soft/hard atomic rho1 Exc contribution:                 -2.3698524013

  Core Hamiltonian energy:                                        448.5531372705
  Hartree energy:                                                 890.3008038027
  Exchange-correlation energy:                                   -108.1290848617

  GAPW| Exc from hard and soft atomic rho1:                        -8.6899926379
  GAPW| local Eh = 1 center integrals:                           -300.4846713300
        Maximum deviation from MO S-orthonormality                    0.1516E-03
        Minimum/Maximum MO magnitude              0.3402E+00          0.1082E+01
    21 OT CG       0.96E-07  161.0     0.00000524      -666.4853896973  2.90E-10

  Trace(PS):                                  449.9999967701
  Electronic density on regular grids:       -444.3781041117        5.6218958883
  Core density on regular grids:              450.0000000000        0.0000000000
  Hard and soft densities (Lebedev):        -1536.3970470964    -1530.7750976367
  Total Rho_soft + Rho1_hard - Rho1_soft     -450.0000535714
  Total charge density (r-space):              -0.0000535714
  Total Rho_soft + Rho0_soft (g-space):        -0.0000579993

  Wfn fit exchange-correlation energy:                            82.0994692066
  Wfn fit soft/hard atomic rho1 Exc contribution:                 -2.3698524013

  Core Hamiltonian energy:                                        448.5531372707
  Hartree energy:                                                 890.3008038028
  Exchange-correlation energy:                                   -108.1290848617

  GAPW| Exc from hard and soft atomic rho1:                        -8.6899926379
  GAPW| local Eh = 1 center integrals:                           -300.4846713301
        Maximum deviation from MO S-orthonormality                    0.1516E-03
        Minimum/Maximum MO magnitude              0.3402E+00          0.1082E+01
    22 OT LS       0.19E-06  144.9                     -666.4853896970

  Trace(PS):                                  449.9999967701
  Electronic density on regular grids:       -444.3781041117        5.6218958883
  Core density on regular grids:              450.0000000000        0.0000000000
  Hard and soft densities (Lebedev):        -1536.3970470959    -1530.7750976362
  Total Rho_soft + Rho1_hard - Rho1_soft     -450.0000535713
  Total charge density (r-space):              -0.0000535713
  Total Rho_soft + Rho0_soft (g-space):        -0.0000579993

  Wfn fit exchange-correlation energy:                            82.0994692066
  Wfn fit soft/hard atomic rho1 Exc contribution:                 -2.3698524014

  Core Hamiltonian energy:                                        448.5531372709
  Hartree energy:                                                 890.3008038029
  Exchange-correlation energy:                                   -108.1290848616

  GAPW| Exc from hard and soft atomic rho1:                        -8.6899926379
  GAPW| local Eh = 1 center integrals:                           -300.4846713302
        Maximum deviation from MO S-orthonormality                    0.1516E-03
        Minimum/Maximum MO magnitude              0.3402E+00          0.1082E+01
    23 OT CG       0.19E-06  160.5     0.00000524      -666.4853896967  5.80E-10

  Trace(PS):                                  449.9999967700
  Electronic density on regular grids:       -444.3781041117        5.6218958883
  Core density on regular grids:              450.0000000000        0.0000000000
  Hard and soft densities (Lebedev):        -1536.3970470948    -1530.7750976352
  Total Rho_soft + Rho1_hard - Rho1_soft     -450.0000535713
  Total charge density (r-space):              -0.0000535713
  Total Rho_soft + Rho0_soft (g-space):        -0.0000579992

  Wfn fit exchange-correlation energy:                            82.0994692066
  Wfn fit soft/hard atomic rho1 Exc contribution:                 -2.3698524014

  Core Hamiltonian energy:                                        448.5531372712
  Hartree energy:                                                 890.3008038031
  Exchange-correlation energy:                                   -108.1290848616

  GAPW| Exc from hard and soft atomic rho1:                        -8.6899926378
  GAPW| local Eh = 1 center integrals:                           -300.4846713303
        Maximum deviation from MO S-orthonormality                    0.1516E-03
        Minimum/Maximum MO magnitude              0.3402E+00          0.1082E+01
    24 OT LS       0.38E-06  145.1                     -666.4853896961

  Trace(PS):                                  449.9999967700
  Electronic density on regular grids:       -444.3781041117        5.6218958883
  Core density on regular grids:              450.0000000000        0.0000000000
  Hard and soft densities (Lebedev):        -1536.3970470938    -1530.7750976342
  Total Rho_soft + Rho1_hard - Rho1_soft     -450.0000535712
  Total charge density (r-space):              -0.0000535712
  Total Rho_soft + Rho0_soft (g-space):        -0.0000579991

  Wfn fit exchange-correlation energy:                            82.0994692066
  Wfn fit soft/hard atomic rho1 Exc contribution:                 -2.3698524015

  Core Hamiltonian energy:                                        448.5531372716
  Hartree energy:                                                 890.3008038033
  Exchange-correlation energy:                                   -108.1290848616

  GAPW| Exc from hard and soft atomic rho1:                        -8.6899926378
  GAPW| local Eh = 1 center integrals:                           -300.4846713305
        Maximum deviation from MO S-orthonormality                    0.1516E-03
        Minimum/Maximum MO magnitude              0.3402E+00          0.1082E+01
    25 OT CG       0.38E-06  160.3     0.00000524      -666.4853896955  1.16E-09

  Trace(PS):                                  449.9999967699
  Electronic density on regular grids:       -444.3781041116        5.6218958884
  Core density on regular grids:              450.0000000000        0.0000000000
  Hard and soft densities (Lebedev):        -1536.3970470917    -1530.7750976322
  Total Rho_soft + Rho1_hard - Rho1_soft     -450.0000535711
  Total charge density (r-space):              -0.0000535711
  Total Rho_soft + Rho0_soft (g-space):        -0.0000579990

  Wfn fit exchange-correlation energy:                            82.0994692066
  Wfn fit soft/hard atomic rho1 Exc contribution:                 -2.3698524016

  Core Hamiltonian energy:                                        448.5531372723
  Hartree energy:                                                 890.3008038038
  Exchange-correlation energy:                                   -108.1290848616

  GAPW| Exc from hard and soft atomic rho1:                        -8.6899926377
  GAPW| local Eh = 1 center integrals:                           -300.4846713308
        Maximum deviation from MO S-orthonormality                    0.1516E-03
        Minimum/Maximum MO magnitude              0.3402E+00          0.1082E+01
    26 OT LS       0.77E-06  144.9                     -666.4853896944

  Trace(PS):                                  449.9999967698
  Electronic density on regular grids:       -444.3781041116        5.6218958884
  Core density on regular grids:              450.0000000000        0.0000000000
  Hard and soft densities (Lebedev):        -1536.3970470896    -1530.7750976301
  Total Rho_soft + Rho1_hard - Rho1_soft     -450.0000535710
  Total charge density (r-space):              -0.0000535710
  Total Rho_soft + Rho0_soft (g-space):        -0.0000579989

  Wfn fit exchange-correlation energy:                            82.0994692066
  Wfn fit soft/hard atomic rho1 Exc contribution:                 -2.3698524017

  Core Hamiltonian energy:                                        448.5531372730
  Hartree energy:                                                 890.3008038042
  Exchange-correlation energy:                                   -108.1290848615

  GAPW| Exc from hard and soft atomic rho1:                        -8.6899926376
  GAPW| local Eh = 1 center integrals:                           -300.4846713311
        Maximum deviation from MO S-orthonormality                    0.1516E-03
        Minimum/Maximum MO magnitude              0.3402E+00          0.1082E+01
    27 OT CG       0.77E-06  160.7     0.00000524      -666.4853896932  2.32E-09

  Trace(PS):                                  449.9999967695
  Electronic density on regular grids:       -444.3781041115        5.6218958885
  Core density on regular grids:              450.0000000000        0.0000000000
  Hard and soft densities (Lebedev):        -1536.3970470854    -1530.7750976261
  Total Rho_soft + Rho1_hard - Rho1_soft     -450.0000535708
  Total charge density (r-space):              -0.0000535708
  Total Rho_soft + Rho0_soft (g-space):        -0.0000579987

  Wfn fit exchange-correlation energy:                            82.0994692066
  Wfn fit soft/hard atomic rho1 Exc contribution:                 -2.3698524019

  Core Hamiltonian energy:                                        448.5531372744
  Hartree energy:                                                 890.3008038051
  Exchange-correlation energy:                                   -108.1290848615

  GAPW| Exc from hard and soft atomic rho1:                        -8.6899926374
  GAPW| local Eh = 1 center integrals:                           -300.4846713317
        Maximum deviation from MO S-orthonormality                    0.1516E-03
        Minimum/Maximum MO magnitude              0.3402E+00          0.1082E+01
    28 OT LS       0.15E-05  144.9                     -666.4853896909

  Trace(PS):                                  449.9999967693
  Electronic density on regular grids:       -444.3781041114        5.6218958886
  Core density on regular grids:              450.0000000000        0.0000000000
  Hard and soft densities (Lebedev):        -1536.3970470812    -1530.7750976220
  Total Rho_soft + Rho1_hard - Rho1_soft     -450.0000535706
  Total charge density (r-space):              -0.0000535706
  Total Rho_soft + Rho0_soft (g-space):        -0.0000579985

  Wfn fit exchange-correlation energy:                            82.0994692066
  Wfn fit soft/hard atomic rho1 Exc contribution:                 -2.3698524021

  Core Hamiltonian energy:                                        448.5531372758
  Hartree energy:                                                 890.3008038059
  Exchange-correlation energy:                                   -108.1290848614

  GAPW| Exc from hard and soft atomic rho1:                        -8.6899926372
  GAPW| local Eh = 1 center integrals:                           -300.4846713323
        Maximum deviation from MO S-orthonormality                    0.1516E-03
        Minimum/Maximum MO magnitude              0.3402E+00          0.1082E+01
    29 OT CG       0.15E-05  160.8     0.00000524      -666.4853896885  4.64E-09

  Trace(PS):                                  449.9999967689
  Electronic density on regular grids:       -444.3781041113        5.6218958887
  Core density on regular grids:              450.0000000000        0.0000000000
  Hard and soft densities (Lebedev):        -1536.3970470728    -1530.7750976139
  Total Rho_soft + Rho1_hard - Rho1_soft     -450.0000535701
  Total charge density (r-space):              -0.0000535701
  Total Rho_soft + Rho0_soft (g-space):        -0.0000579980

  Wfn fit exchange-correlation energy:                            82.0994692066
  Wfn fit soft/hard atomic rho1 Exc contribution:                 -2.3698524025

  Core Hamiltonian energy:                                        448.5531372786
  Hartree energy:                                                 890.3008038077
  Exchange-correlation energy:                                   -108.1290848613

  GAPW| Exc from hard and soft atomic rho1:                        -8.6899926368
  GAPW| local Eh = 1 center integrals:                           -300.4846713335
        Maximum deviation from MO S-orthonormality                    0.1516E-03
        Minimum/Maximum MO magnitude              0.3402E+00          0.1082E+01
    30 OT LS       0.31E-05  145.1                     -666.4853896839

  Trace(PS):                                  449.9999967684
  Electronic density on regular grids:       -444.3781041112        5.6218958888
  Core density on regular grids:              450.0000000000        0.0000000000
  Hard and soft densities (Lebedev):        -1536.3970470644    -1530.7750976058
  Total Rho_soft + Rho1_hard - Rho1_soft     -450.0000535697
  Total charge density (r-space):              -0.0000535697
  Total Rho_soft + Rho0_soft (g-space):        -0.0000579976

  Wfn fit exchange-correlation energy:                            82.0994692066
  Wfn fit soft/hard atomic rho1 Exc contribution:                 -2.3698524029

  Core Hamiltonian energy:                                        448.5531372815
  Hartree energy:                                                 890.3008038094
  Exchange-correlation energy:                                   -108.1290848611

  GAPW| Exc from hard and soft atomic rho1:                        -8.6899926364
  GAPW| local Eh = 1 center integrals:                           -300.4846713347
        Maximum deviation from MO S-orthonormality                    0.1516E-03
        Minimum/Maximum MO magnitude              0.3402E+00          0.1082E+01
    31 OT CG       0.31E-05  160.3     0.00000524      -666.4853896793  9.28E-09

  Trace(PS):                                  449.9999967676
  Electronic density on regular grids:       -444.3781041109        5.6218958891
  Core density on regular grids:              450.0000000000        0.0000000000
  Hard and soft densities (Lebedev):        -1536.3970470476    -1530.7750975896
  Total Rho_soft + Rho1_hard - Rho1_soft     -450.0000535688
  Total charge density (r-space):              -0.0000535688
  Total Rho_soft + Rho0_soft (g-space):        -0.0000579967

  Wfn fit exchange-correlation energy:                            82.0994692066
  Wfn fit soft/hard atomic rho1 Exc contribution:                 -2.3698524037

  Core Hamiltonian energy:                                        448.5531372871
  Hartree energy:                                                 890.3008038129
  Exchange-correlation energy:                                   -108.1290848608

  GAPW| Exc from hard and soft atomic rho1:                        -8.6899926356
  GAPW| local Eh = 1 center integrals:                           -300.4846713371
        Maximum deviation from MO S-orthonormality                    0.1517E-03
        Minimum/Maximum MO magnitude              0.3402E+00          0.1082E+01
    32 OT LS       0.31E-07  145.0                     -666.4853896700

  Trace(PS):                                  449.9999967684
  Electronic density on regular grids:       -444.3781041112        5.6218958888
  Core density on regular grids:              450.0000000000        0.0000000000
  Hard and soft densities (Lebedev):        -1536.3970470642    -1530.7750976057
  Total Rho_soft + Rho1_hard - Rho1_soft     -450.0000535697
  Total charge density (r-space):              -0.0000535697
  Total Rho_soft + Rho0_soft (g-space):        -0.0000579976

