     113
 i =      132, E =      -681.6102694170
  C         8.6186216175       14.9302953756        0.0487659226
  C         9.8474565872       15.6494905965        0.0491275275
  C        11.0744076103       14.9310975742        0.0555963363
  C        12.3048614819       15.6482757568        0.0386623331
  C        13.5319401917       14.9291366945        0.0211040922
  C        14.7613725002       15.6454060393       -0.0232064623
  C        15.9868211893       14.9242762056       -0.0595794258
  C        17.2162021285       15.6407643945       -0.0921251419
  C        18.4430522551       14.9232292273       -0.1267064701
  C        19.6723611349       15.6428733950       -0.1233976406
  C        20.8990398149       14.9231516974       -0.1265656982
  C        22.1282794377       15.6408811789       -0.0924180161
  C        23.3562671954       14.9249200670       -0.0673020382
  C        24.5848631069       15.6471750974       -0.0358861142
  C        25.8145644403       14.9343466349       -0.0000333611
  C        27.0417319394       15.6511663507        0.0250300615
  C        25.8000116971       13.5053511582        0.0046728866
  C        23.3456161108       13.4997916642       -0.0783677869
  C        20.8897127775       13.4982544959       -0.1413387488
  C        18.4338801914       13.4980740811       -0.1388338180
  C        15.9783091404       13.4990706451       -0.0659199296
  C        14.7492368011       12.7813126574       -0.0246470424
  C        13.5236384980       13.5036118804        0.0231280899
  C        12.2921763822       12.7879079672        0.0472131416
  C        11.0627341019       13.5057101810        0.0608668340
  C         9.8322138942       12.7852069808        0.0625067965
  C         8.6054044996       13.5045859185        0.0565881498
  C         7.3768548138       12.7837472874        0.0392221674
  C        24.5725838222       12.7823844597       -0.0394873577
  C        22.1170929841       12.7800668303       -0.1227392734
  C        19.6607439614       12.7788044333       -0.1515545239
  C        17.2046769711       12.7794714643       -0.1143168464
  C        24.5619670764       11.3559103220       -0.0445749179
  C        23.3330942158       10.6357465893       -0.0913364839
  C        22.1071156044       11.3547831548       -0.1271918462
  C        20.8782182443       10.6349981840       -0.1411703264
  C        19.6512343477       11.3537267202       -0.1494432575
  C        18.4220647561       10.6345708715       -0.1357091197
  C        17.1956093895       11.3542545978       -0.1152231527
  C        15.9668695588       10.6352009709       -0.0717912576
  C        14.7404882761       11.3555031843       -0.0322394142
  C        13.5103265578       10.6351092343       -0.0003104751
  C        12.2826843560       11.3582425882        0.0371075448
  C        11.0477147118       10.6338907038        0.0456811246
  C         9.8186823025       11.3577171212        0.0569351997
  C         8.5913433831       10.6352209135        0.0480252129
  C         7.3661841354       11.3569082602        0.0366184802
  C         6.1397331417       10.6355729850       -0.0010391393
  C         6.1295490458        9.2097556288       -0.0173323799
  C         7.3556605972        8.4890804682       -0.0036206184
  C         8.5837717882        9.2084885895        0.0261354689
  C         9.8101331773        8.4865493964        0.0158808203
  C        11.0405347021        9.2036445207        0.0234570635
  C        12.2704072919        8.4856039658       -0.0073170107
  C        13.4998523115        9.2071147571       -0.0178320426
  C        14.7280884413        8.4888165830       -0.0416184536
  C        15.9563858188        9.2094709950       -0.0640161701
  C        17.1832323072        8.4900162771       -0.0820847652
  C        18.4117273787        9.2094648427       -0.1162464811
  C        19.6390232770        8.4906600199       -0.1109266140
  C        20.8678797597        9.2099096669       -0.1221663533
  C        22.0944879936        8.4906723320       -0.0918909505
  C        23.3228755993        9.2103095000       -0.0773404220
  C        22.0863504621        7.0659831392       -0.0661100433
  C        20.8575944700        6.3471977930       -0.0602929598
  C        19.6305162278        7.0662845415       -0.0755688500
  C        18.4017095544        6.3467964235       -0.0597794683
  C        17.1742419458        7.0650578889       -0.0624248213
  C        15.9456057051        6.3449589550       -0.0500755286
  C        14.7182329713        7.0631991247       -0.0448620140
  C        13.4895861997        6.3429526945       -0.0417135905
  C        12.2617437489        7.0603699399       -0.0293821947
  C        11.0319600332        6.3421997481       -0.0338785306
  C         9.8045480063        7.0613605523       -0.0198708155
  C         8.5755421040        6.3431281577       -0.0333681796
  C         7.3491684531        7.0635096581       -0.0286436013
  C         6.1204220287        6.3449350582       -0.0415569633
  C         4.8938640232        7.0651263734       -0.0469936825
  C         4.9014131540        8.4907323255       -0.0473678167
  C         3.6650808203        6.3463409785       -0.0511800035
  C         3.6560175091        4.9210935702       -0.0381543162
  C         4.8828066360        4.2013865359       -0.0354929937
  C         6.1119565802        4.9193878927       -0.0437315625
  C         7.3385360174        4.1992589975       -0.0476317743
  C         8.5673780984        4.9176612947       -0.0471367292
  C         9.7940423681        4.1980084468       -0.0547572999
  C        11.0232734378        4.9167824675       -0.0492053869
  C        12.2507730210        4.1981995396       -0.0548418751
  C        13.4796457656        4.9177774041       -0.0482989484
  C        14.7067635193        4.1995842291       -0.0484414304
  C        15.9353976758        4.9198174273       -0.0464464866
  C        17.1629883054        4.2023065079       -0.0395466593
  C        18.3917187102        4.9219227486       -0.0427352136
  C        19.6191199181        4.2038892833       -0.0285514819
  C        20.8480021087        4.9224134225       -0.0380491132
  C        19.6105880212        2.7797135686        0.0025667312
  C        18.3823733185        2.0613010514        0.0027960111
  C        17.1541446435        2.7776468906       -0.0266289827
  C        15.9254517565        2.0574641587       -0.0394691909
  C        14.6977661176        2.7743793418       -0.0527000292
  C        13.4696822001        2.0531958944       -0.0715269002
  C        12.2427887699        2.7728294937       -0.0728182840
  C        11.0138145841        2.0539107257       -0.0918691727
  C         9.7863410159        2.7725653762       -0.0734250872
  C         8.5574087897        2.0531233549       -0.0719340940
  C         6.1016625483        2.0563404124       -0.0320080140
  C         7.3310036300        2.7737328302       -0.0512455470
  C         4.8749706711        2.7763522820       -0.0177092387
  C         3.6457531608        2.0590231545        0.0151584703
  C         2.4184077029        2.7782656056        0.0091390231
  C         2.4267413651        4.2028199691       -0.0251214037
  C         1.1892658407        2.0602438541        0.0262936567
 Na        11.7334976580       10.9280840302        2.6386945653
