 DBCSR| CPU Multiplication driver                                           BLAS (U)
 DBCSR| Multrec recursion limit                                              512 (U)
 DBCSR| Multiplication stack size                                           1000 (D)
 DBCSR| Maximum elements for images                                    UNLIMITED (U)
 DBCSR| Multiplicative factor virtual images                                   1 (U)
 DBCSR| Use multiplication densification                                       T (D)
 DBCSR| Multiplication size stacks                                             3 (U)
 DBCSR| Use memory pool for CPU allocation                                     F (U)
 DBCSR| Number of 3D layers                                               SINGLE (U)
 DBCSR| Use MPI memory allocation                                              F (U)
 DBCSR| Use RMA algorithm                                                      F (U)
 DBCSR| Use Communication thread                                               T (U)
 DBCSR| Communication thread load                                             87 (D)
 DBCSR| MPI: My process id                                                     0
 DBCSR| MPI: Number of processes                                              16
 DBCSR| OMP: Current number of threads                                         1
 DBCSR| OMP: Max number of threads                                             1
 DBCSR| Split modifier for TAS multiplication algorithm                  1.0E+00 (U)


  **** **** ******  **  PROGRAM STARTED AT               2025-07-10 13:32:25.389
 ***** ** ***  *** **   PROGRAM STARTED ON                            sebnode130
 **    ****   ******    PROGRAM STARTED BY                                luehrs
 ***** **    ** ** **   PROGRAM PROCESS ID                               1119386
  **** **  *******  **  PROGRAM STARTED IN /home/luehrs/PhD/Sodium_batteries/Sod
                                           ium-graphene-surface/Zig-Zag_2

 CP2K| version string:                                       CP2K version 2023.1
 CP2K| source code revision number:                                  git:b888bd8
 CP2K| cp2kflags: omp libint fftw3 libxc elpa parallel scalapack spglib         
 CP2K| is freely available from                            https://www.cp2k.org/
 CP2K| Program compiled at                          Tue Jan 10 19:52:03 UTC 2023
 CP2K| Program compiled on                                            x86-ubc-01
 CP2K| Program compiled for                                Linux-x86_64-gfortran
 CP2K| Data directory path                                       /usr/share/cp2k
 CP2K| Input file name                                         input.zig-zag.inp

 GLOBAL| Force Environment number                                              1
 GLOBAL| Basis set file name                                      ./BASIS_MOLOPT
 GLOBAL| Potential file name                                    ./GTH_POTENTIALS
 GLOBAL| MM Potential file name                                     MM_POTENTIAL
 GLOBAL| Coordinate file name           graphene_zig-zag_no_hydrogen_PBE_relaxed
 GLOBAL| Method name                                                        CP2K
 GLOBAL| Project name                                          graphene_BSSE_PBE
 GLOBAL| Run type                                                           BSSE
 GLOBAL| FFT library                                                       FFTW3
 GLOBAL| Diagonalization library                                            ELPA
 GLOBAL| DGEMM library                                                      BLAS
 GLOBAL| Minimum number of eigenvectors for ELPA usage                        16
 GLOBAL| Orthonormality check for eigenvectors                          DISABLED
 GLOBAL| Matrix multiplication library                                 ScaLAPACK
 GLOBAL| All-to-all communication in single precision                          F
 GLOBAL| FFTs using library dependent lengths                                  F
 GLOBAL| Grid backend                                                       AUTO
 GLOBAL| Global print level                                                  LOW
 GLOBAL| MPI I/O enabled                                                       T
 GLOBAL| Total number of message passing processes                            16
 GLOBAL| Number of threads for this process                                    1
 GLOBAL| This output is from process                                           0
 GLOBAL| Stack size for threads created by OpenMP (OMP_STACKSIZE)        default
 GLOBAL| CPU model name                          AMD EPYC 7513 32-Core Processor

 MEMORY| system memory details [Kb]
 MEMORY|                        rank 0           min           max       average
 MEMORY| MemTotal            131832644     131832644     131832644     131832644
 MEMORY| MemFree             127532284     127532284     127532284     127532284
 MEMORY| Buffers                161180        161180        161180        161180
 MEMORY| Cached                 310636        310636        310636        310636
 MEMORY| Slab                   837980        837980        837980        837980
 MEMORY| SReclaimable           154316        154316        154316        154316
 MEMORY| MemLikelyFree       128158416     128158416     128158416     128158416


 GENERATE|  Preliminary Number of Bonds generated:                             0
 GENERATE|  Achieved consistency in connectivity generation.

 *******************************************************************************
 *******************************************************************************
 **                                                                           **
 **     #####                         ##              ##                      **
 **    ##   ##            ##          ##              ##                      **
 **   ##     ##                       ##            ######                    **
 **   ##     ##  ##   ##  ##   #####  ##  ##   ####   ##    #####    #####    **
 **   ##     ##  ##   ##  ##  ##      ## ##   ##      ##   ##   ##  ##   ##   **
 **   ##  ## ##  ##   ##  ##  ##      ####     ###    ##   ######   ######    **
 **    ##  ###   ##   ##  ##  ##      ## ##      ##   ##   ##       ##        **
 **     #######   #####   ##   #####  ##  ##  ####    ##    #####   ##        **
 **           ##                                                    ##        **
 **                                                                           **
 **                                                ... make the atoms dance   **
 **                                                                           **
 **            Copyright (C) by CP2K developers group (2000-2022)             **
 **                      J. Chem. Phys. 152, 194103 (2020)                    **
 **                                                                           **
 *******************************************************************************


 TOTAL NUMBERS AND MAXIMUM NUMBERS

  Total number of            - Atomic kinds:                                   2
                             - Atoms:                                        113
                             - Shell sets:                                   113
                             - Shells:                                       565
                             - Primitive Cartesian functions:                567
                             - Cartesian basis functions:                   1577
                             - Spherical basis functions:                   1465

  Maximum angular momentum of- Orbital basis functions:                        2
                             - Local part of the GTH pseudopotential:          2
                             - Non-local part of the GTH pseudopotential:      1


 SCF PARAMETERS         Density guess:                                    ATOMIC
                        --------------------------------------------------------
                        max_scf:                                             400
                        max_scf_history:                                       0
                        max_diis:                                              4
                        --------------------------------------------------------
                        eps_scf:                                        3.00E-07
                        eps_scf_history:                                0.00E+00
                        eps_diis:                                       1.00E-01
                        eps_eigval:                                     1.00E-05
                        --------------------------------------------------------
                        level_shift [a.u.]:                             0.000000
                        added MOs                                       100  100
                        --------------------------------------------------------
                        Mixing method:                            BROYDEN_MIXING
                                                charge density mixing in g-space
                        --------------------------------------------------------
                        Smear method:                                FERMI_DIRAC
                        Electronic temperature [K]:                        300.0
                        Electronic temperature [a.u.]:                  9.50E-04
                        Accuracy threshold:                             1.00E-10
                        --------------------------------------------------------
                        Outer loop SCF in use 
                        No variables optimised in outer loop
                        eps_scf                                         1.00E-06
                        max_scf                                              100
                        DIIS optimization
                        DIIS buffer length                                     3
                        step_size                                       5.00E-01

 -------------------------------------------------------------------------------
 -                                                                             -
 -  BSSE CALCULATION         FRAGMENT CONF: 10        FRAGMENT SUBCONF: 10     -
 -                           CHARGE =     0           MULTIPLICITY =     0     -
 -                                                                             -
 -                 ATOM INDEX                              ATOM NAME           -
 -                 ----------                              ---------           -
 -                      1                                   C                  -
 -                      2                                   C                  -
 -                      3                                   C                  -
 -                      4                                   C                  -
 -                      5                                   C                  -
 -                      6                                   C                  -
 -                      7                                   C                  -
 -                      8                                   C                  -
 -                      9                                   C                  -
 -                     10                                   C                  -
 -                     11                                   C                  -
 -                     12                                   C                  -
 -                     13                                   C                  -
 -                     14                                   C                  -
 -                     15                                   C                  -
 -                     16                                   C                  -
 -                     17                                   C                  -
 -                     18                                   C                  -
 -                     19                                   C                  -
 -                     20                                   C                  -
 -                     21                                   C                  -
 -                     22                                   C                  -
 -                     23                                   C                  -
 -                     24                                   C                  -
 -                     25                                   C                  -
 -                     26                                   C                  -
 -                     27                                   C                  -
 -                     28                                   C                  -
 -                     29                                   C                  -
 -                     30                                   C                  -
 -                     31                                   C                  -
 -                     32                                   C                  -
 -                     33                                   C                  -
 -                     34                                   C                  -
 -                     35                                   C                  -
 -                     36                                   C                  -
 -                     37                                   C                  -
 -                     38                                   C                  -
 -                     39                                   C                  -
 -                     40                                   C                  -
 -                     41                                   C                  -
 -                     42                                   C                  -
 -                     43                                   C                  -
 -                     44                                   C                  -
 -                     45                                   C                  -
 -                     46                                   C                  -
 -                     47                                   C                  -
 -                     48                                   C                  -
 -                     49                                   C                  -
 -                     50                                   C                  -
 -                     51                                   C                  -
 -                     52                                   C                  -
 -                     53                                   C                  -
 -                     54                                   C                  -
 -                     55                                   C                  -
 -                     56                                   C                  -
 -                     57                                   C                  -
 -                     58                                   C                  -
 -                     59                                   C                  -
 -                     60                                   C                  -
 -                     61                                   C                  -
 -                     62                                   C                  -
 -                     63                                   C                  -
 -                     64                                   C                  -
 -                     65                                   C                  -
 -                     66                                   C                  -
 -                     67                                   C                  -
 -                     68                                   C                  -
 -                     69                                   C                  -
 -                     70                                   C                  -
 -                     71                                   C                  -
 -                     72                                   C                  -
 -                     73                                   C                  -
 -                     74                                   C                  -
 -                     75                                   C                  -
 -                     76                                   C                  -
 -                     77                                   C                  -
 -                     78                                   C                  -
 -                     79                                   C                  -
 -                     80                                   C                  -
 -                     81                                   C                  -
 -                     82                                   C                  -
 -                     83                                   C                  -
 -                     84                                   C                  -
 -                     85                                   C                  -
 -                     86                                   C                  -
 -                     87                                   C                  -
 -                     88                                   C                  -
 -                     89                                   C                  -
 -                     90                                   C                  -
 -                     91                                   C                  -
 -                     92                                   C                  -
 -                     93                                   C                  -
 -                     94                                   C                  -
 -                     95                                   C                  -
 -                     96                                   C                  -
 -                     97                                   C                  -
 -                     98                                   C                  -
 -                     99                                   C                  -
 -                    100                                   C                  -
 -                    101                                   C                  -
 -                    102                                   C                  -
 -                    103                                   C                  -
 -                    104                                   C                  -
 -                    105                                   C                  -
 -                    106                                   C                  -
 -                    107                                   C                  -
 -                    108                                   C                  -
 -                    109                                   C                  -
 -                    110                                   C                  -
 -                    111                                   C                  -
 -                    112                                   C                  -
 -------------------------------------------------------------------------------

 *******************************************************************************
 *******************************************************************************
 **                                                                           **
 **     #####                         ##              ##                      **
 **    ##   ##            ##          ##              ##                      **
 **   ##     ##                       ##            ######                    **
 **   ##     ##  ##   ##  ##   #####  ##  ##   ####   ##    #####    #####    **
 **   ##     ##  ##   ##  ##  ##      ## ##   ##      ##   ##   ##  ##   ##   **
 **   ##  ## ##  ##   ##  ##  ##      ####     ###    ##   ######   ######    **
 **    ##  ###   ##   ##  ##  ##      ## ##      ##   ##   ##       ##        **
 **     #######   #####   ##   #####  ##  ##  ####    ##    #####   ##        **
 **           ##                                                    ##        **
 **                                                                           **
 **                                                ... make the atoms dance   **
 **                                                                           **
 **            Copyright (C) by CP2K developers group (2000-2022)             **
 **                      J. Chem. Phys. 152, 194103 (2020)                    **
 **                                                                           **
 *******************************************************************************


 TOTAL NUMBERS AND MAXIMUM NUMBERS

  Total number of            - Atomic kinds:                                   1
                             - Atoms:                                        112
                             - Shell sets:                                   112
                             - Shells:                                       560
                             - Primitive Cartesian functions:                560
                             - Cartesian basis functions:                   1568
                             - Spherical basis functions:                   1456

  Maximum angular momentum of- Orbital basis functions:                        2
                             - Local part of the GTH pseudopotential:          2
                             - Non-local part of the GTH pseudopotential:      0


 SCF PARAMETERS         Density guess:                                    ATOMIC
                        --------------------------------------------------------
                        max_scf:                                             400
                        max_scf_history:                                       0
                        max_diis:                                              4
                        --------------------------------------------------------
                        eps_scf:                                        3.00E-07
                        eps_scf_history:                                0.00E+00
                        eps_diis:                                       1.00E-01
                        eps_eigval:                                     1.00E-05
                        --------------------------------------------------------
                        level_shift [a.u.]:                             0.000000
                        added MOs                                       100  100
                        --------------------------------------------------------
                        Mixing method:                            BROYDEN_MIXING
                                                charge density mixing in g-space
                        --------------------------------------------------------
                        Smear method:                                FERMI_DIRAC
                        Electronic temperature [K]:                        300.0
                        Electronic temperature [a.u.]:                  9.50E-04
                        Accuracy threshold:                             1.00E-10
                        --------------------------------------------------------
                        Outer loop SCF in use 
                        No variables optimised in outer loop
                        eps_scf                                         1.00E-06
                        max_scf                                              100
                        DIIS optimization
                        DIIS buffer length                                     3
                        step_size                                       5.00E-01

 Spin 1

 Number of electrons:                                                        224
 Number of occupied orbitals:                                                224
 Number of molecular orbitals:                                               324

 Spin 2

 Number of electrons:                                                        224
 Number of occupied orbitals:                                                224
 Number of molecular orbitals:                                               324

 Number of orbital functions:                                               1456
 Number of independent orbital functions:                                   1456

 Extrapolation method: initial_guess


 SCF WAVEFUNCTION OPTIMIZATION

  Step     Update method      Time    Convergence         Total energy    Change
  ------------------------------------------------------------------------------
     1 NoMix/Diag. 0.10E+00    2.5     0.46286991      -633.6343967541 -6.34E+02
     2 Broy./Diag. 0.10E+00    3.9     0.00116606      -608.6957299993  2.49E+01
     3 Broy./Diag. 0.10E+00    3.9     0.01304355      -627.9864133543 -1.93E+01
     4 Broy./Diag. 0.10E+00    4.0     0.00018736      -636.1366391053 -8.15E+00
     5 Broy./Diag. 0.10E+00    4.0     0.00142235      -636.4377661926 -3.01E-01
     6 Broy./Diag. 0.10E+00    4.1     0.00005230      -637.1228137781 -6.85E-01
     7 Broy./Diag. 0.10E+00    4.1     0.00044013      -637.4416647539 -3.19E-01
     8 Broy./Diag. 0.10E+00    4.2     0.00002619      -637.6637930564 -2.22E-01
     9 Broy./Diag. 0.10E+00    4.2     0.00040229      -637.7673805198 -1.04E-01
    10 Broy./Diag. 0.10E+00    4.3     0.00002576      -637.9055079622 -1.38E-01
    11 Broy./Diag. 0.10E+00    4.3     0.00029566      -637.8603733632  4.51E-02
    12 Broy./Diag. 0.10E+00    4.3     0.00001456      -637.9073884068 -4.70E-02
    13 Broy./Diag. 0.10E+00    4.3     0.00022803      -637.9414443517 -3.41E-02
    14 Broy./Diag. 0.10E+00    4.3     0.00002249      -637.9665844299 -2.51E-02
    15 Broy./Diag. 0.10E+00    4.3     0.00017410      -637.9826217815 -1.60E-02
    16 Broy./Diag. 0.10E+00    4.3     0.00001156      -637.9848022355 -2.18E-03
    17 Broy./Diag. 0.10E+00    4.3     0.00001714      -637.9723175614  1.25E-02
    18 Broy./Diag. 0.10E+00    4.3     0.00002781      -637.9601483270  1.22E-02
    19 Broy./Diag. 0.10E+00    4.3     0.00000394      -637.9599625644  1.86E-04
    20 Broy./Diag. 0.10E+00    4.3     0.00001285      -637.9634183086 -3.46E-03
    21 Broy./Diag. 0.10E+00    4.3     0.00001096      -637.9677392752 -4.32E-03
    22 Broy./Diag. 0.10E+00    4.3     0.00000994      -637.9714839153 -3.74E-03
    23 Broy./Diag. 0.10E+00    4.3     0.00001333      -637.9723909003 -9.07E-04
    24 Broy./Diag. 0.10E+00    4.3     0.00000200      -637.9718577437  5.33E-04
    25 Broy./Diag. 0.10E+00    4.3     0.00001847      -637.9715569404  3.01E-04
    26 Broy./Diag. 0.10E+00    4.3     0.00000471      -637.9734574201 -1.90E-03
    27 Broy./Diag. 0.10E+00    4.3     0.00001054      -637.9763940181 -2.94E-03
    28 Broy./Diag. 0.10E+00    4.3     0.00000206      -637.9773378509 -9.44E-04
    29 Broy./Diag. 0.10E+00    4.3     0.00000185      -637.9765239423  8.14E-04
    30 Broy./Diag. 0.10E+00    4.3     0.00000111      -637.9756604318  8.64E-04
    31 Broy./Diag. 0.10E+00    4.3     0.00000047      -637.9753694328  2.91E-04
    32 Broy./Diag. 0.10E+00    4.3     0.00000179      -637.9751182971  2.51E-04
    33 Broy./Diag. 0.10E+00    4.3     0.00000101      -637.9752326313 -1.14E-04
    34 Broy./Diag. 0.10E+00    4.3     0.00000055      -637.9755288553 -2.96E-04
    35 Broy./Diag. 0.10E+00    4.3     0.00000115      -637.9756794495 -1.51E-04
    36 Broy./Diag. 0.10E+00    4.3     0.00000030      -637.9756580228  2.14E-05
    37 Broy./Diag. 0.10E+00    4.3     0.00000102      -637.9755344795  1.24E-04
    38 Broy./Diag. 0.10E+00    4.3     0.00000024      -637.9755733916 -3.89E-05

  *** SCF run converged in    38 steps ***


  Electronic density on regular grids:       -447.9999999998        0.0000000002
  Core density on regular grids:              447.9999999996       -0.0000000004
  Total charge density on r-space grids:       -0.0000000002
  Total charge density g-space grids:          -0.0000000002

  Overlap energy of the core charge distribution:               0.00001885266886
  Self energy of the core charge distribution:              -1493.52088779770361
  Core Hamiltonian energy:                                    468.08608537255651
  Hartree energy:                                             583.39474713439586
  Exchange-correlation energy:                               -195.79414010895778
  Dispersion energy:                                           -0.14139684456320
  Electronic entropic energy:                                  -0.00000000000109
  Fermi energy:                                                -0.10269496480340

  Total energy:                                              -637.97557339160471

  outer SCF iter =    1 RMS gradient =   0.24E-06 energy =       -637.9755733916
  outer SCF loop converged in   1 iterations or   38 steps


  Integrated absolute spin density  :                               0.0000000021
  WARNING: S**2 computation does not yet treat fractional occupied orbitals

 *** WARNING in qs_loc_utils.F:1500 :: User requested the calculation of ***
 *** the localized wavefunction but the section LOCALIZE was not         ***
 *** specified. Localization will not be performed!                      ***


 -------------------------------------------------------------------------------
 -                                                                             -
 -  BSSE CALCULATION         FRAGMENT CONF: 01        FRAGMENT SUBCONF: 01     -
 -                           CHARGE =     0           MULTIPLICITY =     0     -
 -                                                                             -
 -                 ATOM INDEX                              ATOM NAME           -
 -                 ----------                              ---------           -
 -                    113                                   Na                 -
 -------------------------------------------------------------------------------

 *******************************************************************************
 *******************************************************************************
 **                                                                           **
 **     #####                         ##              ##                      **
 **    ##   ##            ##          ##              ##                      **
 **   ##     ##                       ##            ######                    **
 **   ##     ##  ##   ##  ##   #####  ##  ##   ####   ##    #####    #####    **
 **   ##     ##  ##   ##  ##  ##      ## ##   ##      ##   ##   ##  ##   ##   **
 **   ##  ## ##  ##   ##  ##  ##      ####     ###    ##   ######   ######    **
 **    ##  ###   ##   ##  ##  ##      ## ##      ##   ##   ##       ##        **
 **     #######   #####   ##   #####  ##  ##  ####    ##    #####   ##        **
 **           ##                                                    ##        **
 **                                                                           **
 **                                                ... make the atoms dance   **
 **                                                                           **
 **            Copyright (C) by CP2K developers group (2000-2022)             **
 **                      J. Chem. Phys. 152, 194103 (2020)                    **
 **                                                                           **
 *******************************************************************************

 *** WARNING in qs_environment.F:1470 :: More ADDED_MOs requested for beta ***
 *** spin than available.                                                  ***


 *** WARNING in qs_environment.F:1486 :: More added MOs requested than     ***
 *** available. The full set of unoccupied MOs will be used. Use           ***
 *** 'ADDED_MOS -1' to always use all available MOs and to get rid of this ***
 *** warning.                                                              ***



 TOTAL NUMBERS AND MAXIMUM NUMBERS

  Total number of            - Atomic kinds:                                   1
                             - Atoms:                                          1
                             - Shell sets:                                     1
                             - Shells:                                         5
                             - Primitive Cartesian functions:                  7
                             - Cartesian basis functions:                      9
                             - Spherical basis functions:                      9

  Maximum angular momentum of- Orbital basis functions:                        1
                             - Local part of the GTH pseudopotential:          2
                             - Non-local part of the GTH pseudopotential:      1


 SCF PARAMETERS         Density guess:                                    ATOMIC
                        --------------------------------------------------------
                        max_scf:                                             400
                        max_scf_history:                                       0
                        max_diis:                                              4
                        --------------------------------------------------------
                        eps_scf:                                        3.00E-07
                        eps_scf_history:                                0.00E+00
                        eps_diis:                                       1.00E-01
                        eps_eigval:                                     1.00E-05
                        --------------------------------------------------------
                        level_shift [a.u.]:                             0.000000
                        added MOs                                         4    5
                        --------------------------------------------------------
                        Mixing method:                            BROYDEN_MIXING
                                                charge density mixing in g-space
                        --------------------------------------------------------
                        Smear method:                                FERMI_DIRAC
                        Electronic temperature [K]:                        300.0
                        Electronic temperature [a.u.]:                  9.50E-04
                        Accuracy threshold:                             1.00E-10
                        --------------------------------------------------------
                        Outer loop SCF in use 
                        No variables optimised in outer loop
                        eps_scf                                         1.00E-06
                        max_scf                                              100
                        DIIS optimization
                        DIIS buffer length                                     3
                        step_size                                       5.00E-01

 Spin 1

 Number of electrons:                                                          5
 Number of occupied orbitals:                                                  5
 Number of molecular orbitals:                                                 9

 Spin 2

 Number of electrons:                                                          4
 Number of occupied orbitals:                                                  4
 Number of molecular orbitals:                                                 9

 Number of orbital functions:                                                  9
 Number of independent orbital functions:                                      9

 Extrapolation method: initial_guess


 SCF WAVEFUNCTION OPTIMIZATION

  Step     Update method      Time    Convergence         Total energy    Change
  ------------------------------------------------------------------------------
     1 NoMix/Diag. 0.10E+00    0.7     0.42030258       -47.1729824893 -4.72E+01
     2 Broy./Diag. 0.10E+00    1.7     0.00652462       -47.1319774416  4.10E-02
     3 Broy./Diag. 0.10E+00    1.7     0.02138155       -47.1736062612 -4.16E-02
     4 Broy./Diag. 0.10E+00    2.0     0.00032136       -47.1651106551  8.50E-03
     5 Broy./Diag. 0.10E+00    2.5     0.12534747       -47.1777554665 -1.26E-02
     6 Broy./Diag. 0.10E+00    2.7     0.01865162       -46.7640586838  4.14E-01
     7 Broy./Diag. 0.10E+00    2.6     0.00465398       -46.7471552156  1.69E-02
     8 Broy./Diag. 0.10E+00    2.2     0.01512108       -46.7540246979 -6.87E-03
     9 Broy./Diag. 0.10E+00    2.4     0.04440826       -46.8537327591 -9.97E-02
    10 Broy./Diag. 0.10E+00    2.8     0.01678197       -47.0164618039 -1.63E-01
    11 Broy./Diag. 0.10E+00    3.3     0.00548391       -47.0896630486 -7.32E-02
    12 Broy./Diag. 0.10E+00    2.5     0.02062680       -47.1155123905 -2.58E-02
    13 Broy./Diag. 0.10E+00    2.5     0.01694592       -47.1923087858 -7.68E-02
    14 Broy./Diag. 0.10E+00    2.7     0.00468978       -47.2293474867 -3.70E-02
    15 Broy./Diag. 0.10E+00    3.4     0.01412116       -47.2050752942  2.43E-02
    16 Broy./Diag. 0.10E+00    2.6     0.00390520       -47.2572370684 -5.22E-02
    17 Broy./Diag. 0.10E+00    2.4     0.00110051       -47.2613448405 -4.11E-03
    18 Broy./Diag. 0.10E+00    2.5     0.00269011       -47.2756834205 -1.43E-02
    19 Broy./Diag. 0.10E+00    3.4     0.00469977       -47.2909694499 -1.53E-02
    20 Broy./Diag. 0.10E+00    2.4     0.00162513       -47.3091870468 -1.82E-02
    21 Broy./Diag. 0.10E+00    2.4     0.00020432       -47.3136188860 -4.43E-03
    22 Broy./Diag. 0.10E+00    2.6     0.00009757       -47.3141074561 -4.89E-04
    23 Broy./Diag. 0.10E+00    3.2     0.00027321       -47.3225642603 -8.46E-03
    24 Broy./Diag. 0.10E+00    2.8     0.01869825       -47.2929753421  2.96E-02
    25 Broy./Diag. 0.10E+00    2.4     0.00378153       -47.2022651592  9.07E-02
    26 Broy./Diag. 0.10E+00    2.4     0.00063787       -47.1880600442  1.42E-02
    27 Broy./Diag. 0.10E+00    3.0     0.00009128       -47.1854134875  2.65E-03
    28 Broy./Diag. 0.10E+00    3.4     0.00096453       -47.1738019742  1.16E-02
    29 Broy./Diag. 0.10E+00    2.4     0.00221880       -47.1706314431  3.17E-03
    30 Broy./Diag. 0.10E+00    2.5     0.00086776       -47.1753858973 -4.75E-03
    31 Broy./Diag. 0.10E+00    2.7     0.00233588       -47.1752529780  1.33E-04
    32 Broy./Diag. 0.10E+00    3.5     0.00781722       -47.1845172720 -9.26E-03
    33 Broy./Diag. 0.10E+00    2.6     0.00455805       -47.2182131129 -3.37E-02
    34 Broy./Diag. 0.10E+00    2.4     0.00070530       -47.2391223254 -2.09E-02
    35 Broy./Diag. 0.10E+00    2.5     0.00060949       -47.2511716176 -1.20E-02
    36 Broy./Diag. 0.10E+00    3.5     0.00067254       -47.2511544507  1.72E-05
    37 Broy./Diag. 0.10E+00    2.4     0.00228058       -47.2533675349 -2.21E-03
    38 Broy./Diag. 0.10E+00    2.4     0.00032413       -47.2492418288  4.13E-03
    39 Broy./Diag. 0.10E+00    2.5     0.00068557       -47.2457924079  3.45E-03
    40 Broy./Diag. 0.10E+00    3.3     0.00006445       -47.2460448920 -2.52E-04
    41 Broy./Diag. 0.10E+00    3.0     0.00040248       -47.2394606999  6.58E-03
    42 Broy./Diag. 0.10E+00    2.4     0.00011268       -47.2385539453  9.07E-04
    43 Broy./Diag. 0.10E+00    2.4     0.00060690       -47.2310105653  7.54E-03
    44 Broy./Diag. 0.10E+00    2.8     0.00043567       -47.2252655022  5.75E-03
    45 Broy./Diag. 0.10E+00    3.7     0.00071915       -47.2180795652  7.19E-03
    46 Broy./Diag. 0.10E+00    2.5     0.00080484       -47.1788721922  3.92E-02
    47 Broy./Diag. 0.10E+00    2.4     0.00043503       -47.1736810350  5.19E-03
    48 Broy./Diag. 0.10E+00    2.5     0.00025708       -47.1772172881 -3.54E-03
    49 Broy./Diag. 0.10E+00    3.6     0.00031322       -47.1649282305  1.23E-02
    50 Broy./Diag. 0.10E+00    2.5     0.00176474       -47.1630023567  1.93E-03
    51 Broy./Diag. 0.10E+00    2.4     0.00030113       -47.1629476962  5.47E-05
    52 Broy./Diag. 0.10E+00    2.5     0.00012573       -47.1651463515 -2.20E-03
    53 Broy./Diag. 0.10E+00    3.4     0.00007585       -47.1676101354 -2.46E-03
    54 Broy./Diag. 0.10E+00    3.1     0.00013031       -47.1688904043 -1.28E-03
    55 Broy./Diag. 0.10E+00    2.4     0.00019089       -47.1675994374  1.29E-03
    56 Broy./Diag. 0.10E+00    2.4     0.00014328       -47.1665061357  1.09E-03
    57 Broy./Diag. 0.10E+00    2.8     0.00023044       -47.1654545488  1.05E-03
    58 Broy./Diag. 0.10E+00    3.7     0.00017990       -47.1654579892 -3.44E-06
    59 Broy./Diag. 0.10E+00    2.6     0.00030736       -47.1658841161 -4.26E-04
    60 Broy./Diag. 0.10E+00    2.4     0.00070300       -47.1645514979  1.33E-03
    61 Broy./Diag. 0.10E+00    2.5     0.00022492       -47.1625775301  1.97E-03
    62 Broy./Diag. 0.10E+00    3.6     0.00074062       -47.1625931054 -1.56E-05
    63 Broy./Diag. 0.10E+00    2.5     0.00028544       -47.1637801753 -1.19E-03
    64 Broy./Diag. 0.10E+00    2.4     0.00027368       -47.1645727143 -7.93E-04
    65 Broy./Diag. 0.10E+00    2.5     0.00024113       -47.1647924733 -2.20E-04
    66 Broy./Diag. 0.10E+00    3.4     0.00015733       -47.1642444907  5.48E-04
    67 Broy./Diag. 0.10E+00    3.2     0.00010926       -47.1649942106 -7.50E-04
    68 Broy./Diag. 0.10E+00    2.3     0.00008119       -47.1650305961 -3.64E-05
    69 Broy./Diag. 0.10E+00    2.4     0.00028633       -47.1657245566 -6.94E-04
    70 Broy./Diag. 0.10E+00    2.6     0.00038310       -47.1667810663 -1.06E-03
    71 Broy./Diag. 0.10E+00    3.7     0.00000795       -47.1679713088 -1.19E-03
    72 Broy./Diag. 0.10E+00    2.5     0.00004755       -47.1676482132  3.23E-04
    73 Broy./Diag. 0.10E+00    2.4     0.00004192       -47.1660303676  1.62E-03
    74 Broy./Diag. 0.10E+00    2.7     0.00007276       -47.1661807810 -1.50E-04
    75 Broy./Diag. 0.10E+00    3.4     0.00002383       -47.1666244192 -4.44E-04
    76 Broy./Diag. 0.10E+00    2.8     0.00012749       -47.1668426530 -2.18E-04
    77 Broy./Diag. 0.10E+00    2.3     0.00017926       -47.1674554224 -6.13E-04
    78 Broy./Diag. 0.10E+00    2.4     0.00012871       -47.1668150708  6.40E-04
    79 Broy./Diag. 0.10E+00    2.8     0.00000454       -47.1664883940  3.27E-04
    80 Broy./Diag. 0.10E+00    3.7     0.00004124       -47.1665450292 -5.66E-05
    81 Broy./Diag. 0.10E+00    2.5     0.00004146       -47.1665819534 -3.69E-05
    82 Broy./Diag. 0.10E+00    2.4     0.00007473       -47.1667740754 -1.92E-04
    83 Broy./Diag. 0.10E+00    2.5     0.00003006       -47.1670407937 -2.67E-04
    84 Broy./Diag. 0.10E+00    3.6     0.00007129       -47.1671344801 -9.37E-05
    85 Broy./Diag. 0.10E+00    2.5     0.00002376       -47.1674254777 -2.91E-04
    86 Broy./Diag. 0.10E+00    2.4     0.00003338       -47.1674952953 -6.98E-05
    87 Broy./Diag. 0.10E+00    2.4     0.00003575       -47.1675758560 -8.06E-05
    88 Broy./Diag. 0.10E+00    3.4     0.00027030       -47.1678572719 -2.81E-04
    89 Broy./Diag. 0.10E+00    3.1     0.00013826       -47.1694062838 -1.55E-03
    90 Broy./Diag. 0.10E+00    2.4     0.00004405       -47.1703161917 -9.10E-04
    91 Broy./Diag. 0.10E+00    2.4     0.00001195       -47.1706143494 -2.98E-04
    92 Broy./Diag. 0.10E+00    2.5     0.00002603       -47.1702661635  3.48E-04
    93 Broy./Diag. 0.10E+00    3.7     0.00001323       -47.1695112067  7.55E-04
    94 Broy./Diag. 0.10E+00    2.4     0.00001919       -47.1684921272  1.02E-03
    95 Broy./Diag. 0.10E+00    2.4     0.00001412       -47.1676650618  8.27E-04
    96 Broy./Diag. 0.10E+00    2.4     0.00000862       -47.1672437003  4.21E-04
    97 Broy./Diag. 0.10E+00    3.4     0.00001635       -47.1670224314  2.21E-04
    98 Broy./Diag. 0.10E+00    3.1     0.00000732       -47.1667696625  2.53E-04
    99 Broy./Diag. 0.10E+00    2.3     0.00006279       -47.1668208924 -5.12E-05
   100 Broy./Diag. 0.10E+00    2.4     0.00002466       -47.1669108496 -9.00E-05
   101 Broy./Diag. 0.10E+00    2.6     0.00003931       -47.1669050206  5.83E-06
   102 Broy./Diag. 0.10E+00    3.7     0.00000479       -47.1668589277  4.61E-05
   103 Broy./Diag. 0.10E+00    2.5     0.00000794       -47.1668268869  3.20E-05
   104 Broy./Diag. 0.10E+00    2.4     0.00000265       -47.1668338998 -7.01E-06
   105 Broy./Diag. 0.10E+00    2.6     0.00004585       -47.1668799383 -4.60E-05
   106 Broy./Diag. 0.10E+00    3.4     0.00000204       -47.1669935293 -1.14E-04
   107 Broy./Diag. 0.10E+00    2.9     0.00000238       -47.1669444575  4.91E-05
   108 Broy./Diag. 0.10E+00    2.3     0.00000278       -47.1669372544  7.20E-06
   109 Broy./Diag. 0.10E+00    2.4     0.00000208       -47.1669652976 -2.80E-05
   110 Broy./Diag. 0.10E+00    2.6     0.00000016       -47.1669646481  6.49E-07

  *** SCF run converged in   110 steps ***


  Electronic density on regular grids:         -9.0001209956       -0.0001209956
  Core density on regular grids:                9.0000000000       -0.0000000000
  Total charge density on r-space grids:       -0.0001209956
  Total charge density g-space grids:          -0.0001209956

  Overlap energy of the core charge distribution:               0.00000000000000
  Self energy of the core charge distribution:                -96.60649019442629
  Core Hamiltonian energy:                                     29.76226101388683
  Hartree energy:                                              26.73065897971421
  Exchange-correlation energy:                                 -7.05339098372800
  Dispersion energy:                                           -0.00000346358047
  Electronic entropic energy:                                  -0.00000000000000
  Fermi energy:                                                -0.07231662380075

  Total energy:                                               -47.16696464813372

  outer SCF iter =    1 RMS gradient =   0.16E-06 energy =        -47.1669646481
  outer SCF loop converged in   1 iterations or  110 steps


  Integrated absolute spin density  :                               1.0000398306
  WARNING: S**2 computation does not yet treat fractional occupied orbitals

 *** WARNING in qs_loc_utils.F:1500 :: User requested the calculation of ***
 *** the localized wavefunction but the section LOCALIZE was not         ***
 *** specified. Localization will not be performed!                      ***


 -------------------------------------------------------------------------------
 -                                                                             -
 -  BSSE CALCULATION         FRAGMENT CONF: 11        FRAGMENT SUBCONF: 10     -
 -                           CHARGE =     0           MULTIPLICITY =     0     -
 -                                                                             -
 -                 ATOM INDEX                              ATOM NAME           -
 -                 ----------                              ---------           -
 -                      1                                   C                  -
 -                      2                                   C                  -
 -                      3                                   C                  -
 -                      4                                   C                  -
 -                      5                                   C                  -
 -                      6                                   C                  -
 -                      7                                   C                  -
 -                      8                                   C                  -
 -                      9                                   C                  -
 -                     10                                   C                  -
 -                     11                                   C                  -
 -                     12                                   C                  -
 -                     13                                   C                  -
 -                     14                                   C                  -
 -                     15                                   C                  -
 -                     16                                   C                  -
 -                     17                                   C                  -
 -                     18                                   C                  -
 -                     19                                   C                  -
 -                     20                                   C                  -
 -                     21                                   C                  -
 -                     22                                   C                  -
 -                     23                                   C                  -
 -                     24                                   C                  -
 -                     25                                   C                  -
 -                     26                                   C                  -
 -                     27                                   C                  -
 -                     28                                   C                  -
 -                     29                                   C                  -
 -                     30                                   C                  -
 -                     31                                   C                  -
 -                     32                                   C                  -
 -                     33                                   C                  -
 -                     34                                   C                  -
 -                     35                                   C                  -
 -                     36                                   C                  -
 -                     37                                   C                  -
 -                     38                                   C                  -
 -                     39                                   C                  -
 -                     40                                   C                  -
 -                     41                                   C                  -
 -                     42                                   C                  -
 -                     43                                   C                  -
 -                     44                                   C                  -
 -                     45                                   C                  -
 -                     46                                   C                  -
 -                     47                                   C                  -
 -                     48                                   C                  -
 -                     49                                   C                  -
 -                     50                                   C                  -
 -                     51                                   C                  -
 -                     52                                   C                  -
 -                     53                                   C                  -
 -                     54                                   C                  -
 -                     55                                   C                  -
 -                     56                                   C                  -
 -                     57                                   C                  -
 -                     58                                   C                  -
 -                     59                                   C                  -
 -                     60                                   C                  -
 -                     61                                   C                  -
 -                     62                                   C                  -
 -                     63                                   C                  -
 -                     64                                   C                  -
 -                     65                                   C                  -
 -                     66                                   C                  -
 -                     67                                   C                  -
 -                     68                                   C                  -
 -                     69                                   C                  -
 -                     70                                   C                  -
 -                     71                                   C                  -
 -                     72                                   C                  -
 -                     73                                   C                  -
 -                     74                                   C                  -
 -                     75                                   C                  -
 -                     76                                   C                  -
 -                     77                                   C                  -
 -                     78                                   C                  -
 -                     79                                   C                  -
 -                     80                                   C                  -
 -                     81                                   C                  -
 -                     82                                   C                  -
 -                     83                                   C                  -
 -                     84                                   C                  -
 -                     85                                   C                  -
 -                     86                                   C                  -
 -                     87                                   C                  -
 -                     88                                   C                  -
 -                     89                                   C                  -
 -                     90                                   C                  -
 -                     91                                   C                  -
 -                     92                                   C                  -
 -                     93                                   C                  -
 -                     94                                   C                  -
 -                     95                                   C                  -
 -                     96                                   C                  -
 -                     97                                   C                  -
 -                     98                                   C                  -
 -                     99                                   C                  -
 -                    100                                   C                  -
 -                    101                                   C                  -
 -                    102                                   C                  -
 -                    103                                   C                  -
 -                    104                                   C                  -
 -                    105                                   C                  -
 -                    106                                   C                  -
 -                    107                                   C                  -
 -                    108                                   C                  -
 -                    109                                   C                  -
 -                    110                                   C                  -
 -                    111                                   C                  -
 -                    112                                   C                  -
 -                    113                                   Na_ghost           -
 -------------------------------------------------------------------------------

 *******************************************************************************
 *******************************************************************************
 **                                                                           **
 **     #####                         ##              ##                      **
 **    ##   ##            ##          ##              ##                      **
 **   ##     ##                       ##            ######                    **
 **   ##     ##  ##   ##  ##   #####  ##  ##   ####   ##    #####    #####    **
 **   ##     ##  ##   ##  ##  ##      ## ##   ##      ##   ##   ##  ##   ##   **
 **   ##  ## ##  ##   ##  ##  ##      ####     ###    ##   ######   ######    **
 **    ##  ###   ##   ##  ##  ##      ## ##      ##   ##   ##       ##        **
 **     #######   #####   ##   #####  ##  ##  ####    ##    #####   ##        **
 **           ##                                                    ##        **
 **                                                                           **
 **                                                ... make the atoms dance   **
 **                                                                           **
 **            Copyright (C) by CP2K developers group (2000-2022)             **
 **                      J. Chem. Phys. 152, 194103 (2020)                    **
 **                                                                           **
 *******************************************************************************


 TOTAL NUMBERS AND MAXIMUM NUMBERS

  Total number of            - Atomic kinds:                                   2
                             - Atoms:                                        113
                             - Shell sets:                                   113
                             - Shells:                                       565
                             - Primitive Cartesian functions:                567
                             - Cartesian basis functions:                   1577
                             - Spherical basis functions:                   1465

  Maximum angular momentum of- Orbital basis functions:                        2
                             - Local part of the GTH pseudopotential:          2
                             - Non-local part of the GTH pseudopotential:      0


 SCF PARAMETERS         Density guess:                                    ATOMIC
                        --------------------------------------------------------
                        max_scf:                                             400
                        max_scf_history:                                       0
                        max_diis:                                              4
                        --------------------------------------------------------
                        eps_scf:                                        3.00E-07
                        eps_scf_history:                                0.00E+00
                        eps_diis:                                       1.00E-01
                        eps_eigval:                                     1.00E-05
                        --------------------------------------------------------
                        level_shift [a.u.]:                             0.000000
                        added MOs                                       100  100
                        --------------------------------------------------------
                        Mixing method:                            BROYDEN_MIXING
                                                charge density mixing in g-space
                        --------------------------------------------------------
                        Smear method:                                FERMI_DIRAC
                        Electronic temperature [K]:                        300.0
                        Electronic temperature [a.u.]:                  9.50E-04
                        Accuracy threshold:                             1.00E-10
                        --------------------------------------------------------
                        Outer loop SCF in use 
                        No variables optimised in outer loop
                        eps_scf                                         1.00E-06
                        max_scf                                              100
                        DIIS optimization
                        DIIS buffer length                                     3
                        step_size                                       5.00E-01

 Spin 1

 Number of electrons:                                                        224
 Number of occupied orbitals:                                                224
 Number of molecular orbitals:                                               324

 Spin 2

 Number of electrons:                                                        224
 Number of occupied orbitals:                                                224
 Number of molecular orbitals:                                               324

 Number of orbital functions:                                               1465
 Number of independent orbital functions:                                   1465

 Extrapolation method: initial_guess


 SCF WAVEFUNCTION OPTIMIZATION

  Step     Update method      Time    Convergence         Total energy    Change
  ------------------------------------------------------------------------------
     1 NoMix/Diag. 0.10E+00    4.8     0.46297406      -633.6343967541 -6.34E+02
     2 Broy./Diag. 0.10E+00    7.0     0.00116669      -608.6892280287  2.49E+01
     3 Broy./Diag. 0.10E+00    7.1     0.01305051      -627.9780927783 -1.93E+01
     4 Broy./Diag. 0.10E+00    7.1     0.00018801      -636.1332817157 -8.16E+00
     5 Broy./Diag. 0.10E+00    7.1     0.00139852      -636.4345951030 -3.01E-01
     6 Broy./Diag. 0.10E+00    7.2     0.00005225      -637.1211878854 -6.87E-01
     7 Broy./Diag. 0.10E+00    7.2     0.00043704      -637.4407554899 -3.20E-01
     8 Broy./Diag. 0.10E+00    7.3     0.00002527      -637.6640293194 -2.23E-01
     9 Broy./Diag. 0.10E+00    7.3     0.00038788      -637.7676975821 -1.04E-01
    10 Broy./Diag. 0.10E+00    7.5     0.00002549      -637.9066535641 -1.39E-01
    11 Broy./Diag. 0.10E+00    7.5     0.00028976      -637.8610434661  4.56E-02
    12 Broy./Diag. 0.10E+00    7.5     0.00001412      -637.9081797835 -4.71E-02
    13 Broy./Diag. 0.10E+00    7.4     0.00021968      -637.9429474295 -3.48E-02
    14 Broy./Diag. 0.10E+00    7.0     0.00002221      -637.9681131797 -2.52E-02
    15 Broy./Diag. 0.10E+00   10.8     0.00017238      -637.9838415553 -1.57E-02
    16 Broy./Diag. 0.10E+00   11.9     0.00001056      -637.9858813105 -2.04E-03
    17 Broy./Diag. 0.10E+00   11.9     0.00001708      -637.9734596027  1.24E-02
    18 Broy./Diag. 0.10E+00   12.1     0.00002920      -637.9612288619  1.22E-02
    19 Broy./Diag. 0.10E+00   12.4     0.00000458      -637.9614975585 -2.69E-04
    20 Broy./Diag. 0.10E+00   11.9     0.00001470      -637.9657723200 -4.27E-03
    21 Broy./Diag. 0.10E+00   12.2     0.00000848      -637.9705069597 -4.73E-03
    22 Broy./Diag. 0.10E+00   12.5     0.00001048      -637.9737069065 -3.20E-03
    23 Broy./Diag. 0.10E+00   12.1     0.00001399      -637.9742257123 -5.19E-04
    24 Broy./Diag. 0.10E+00   12.5     0.00000283      -637.9736772321  5.48E-04
    25 Broy./Diag. 0.10E+00   11.9     0.00002109      -637.9734583862  2.19E-04
    26 Broy./Diag. 0.10E+00   12.1     0.00000490      -637.9750074903 -1.55E-03
    27 Broy./Diag. 0.10E+00   12.5     0.00000978      -637.9777348937 -2.73E-03
    28 Broy./Diag. 0.10E+00   12.0     0.00000205      -637.9785266996 -7.92E-04
    29 Broy./Diag. 0.10E+00   12.5     0.00000202      -637.9776954157  8.31E-04
    30 Broy./Diag. 0.10E+00   11.8     0.00000131      -637.9766970290  9.98E-04
    31 Broy./Diag. 0.10E+00   12.0     0.00000049      -637.9763588825  3.38E-04
    32 Broy./Diag. 0.10E+00   12.7     0.00000176      -637.9760974487  2.61E-04
    33 Broy./Diag. 0.10E+00   12.2     0.00000103      -637.9761978070 -1.00E-04
    34 Broy./Diag. 0.10E+00   12.5     0.00000050      -637.9764904542 -2.93E-04
    35 Broy./Diag. 0.10E+00   12.0     0.00000119      -637.9766374062 -1.47E-04
    36 Broy./Diag. 0.10E+00   12.5     0.00000032      -637.9766138177  2.36E-05
    37 Broy./Diag. 0.10E+00    7.9     0.00000106      -637.9764967568  1.17E-04
    38 Broy./Diag. 0.10E+00    7.3     0.00000033      -637.9765458556 -4.91E-05
    39 Broy./Diag. 0.10E+00    7.5     0.00000054      -637.9766951412 -1.49E-04
    40 Broy./Diag. 0.10E+00    7.5     0.00000016      -637.9768167848 -1.22E-04

  *** SCF run converged in    40 steps ***


  Electronic density on regular grids:       -447.9999999996        0.0000000004
  Core density on regular grids:              447.9999999996       -0.0000000004
  Total charge density on r-space grids:        0.0000000000
  Total charge density g-space grids:           0.0000000000

  Overlap energy of the core charge distribution:               0.00001885266886
  Self energy of the core charge distribution:              -1493.52088779770361
  Core Hamiltonian energy:                                    468.08299823049504
  Hartree energy:                                             583.39822129151571
  Exchange-correlation energy:                               -195.79577051724263
  Dispersion energy:                                           -0.14139684456320
  Electronic entropic energy:                                  -0.00000000000109
  Fermi energy:                                                -0.10261962225990

  Total energy:                                              -637.97681678483104

  outer SCF iter =    1 RMS gradient =   0.16E-06 energy =       -637.9768167848
  outer SCF loop converged in   1 iterations or   40 steps


  Integrated absolute spin density  :                               0.0000000020
  WARNING: S**2 computation does not yet treat fractional occupied orbitals

 *** WARNING in qs_loc_utils.F:1500 :: User requested the calculation of ***
 *** the localized wavefunction but the section LOCALIZE was not         ***
 *** specified. Localization will not be performed!                      ***


 -------------------------------------------------------------------------------
 -                                                                             -
 -  BSSE CALCULATION         FRAGMENT CONF: 11        FRAGMENT SUBCONF: 01     -
 -                           CHARGE =     0           MULTIPLICITY =     0     -
 -                                                                             -
 -                 ATOM INDEX                              ATOM NAME           -
 -                 ----------                              ---------           -
 -                      1                                   C_ghost            -
 -                      2                                   C_ghost            -
 -                      3                                   C_ghost            -
 -                      4                                   C_ghost            -
 -                      5                                   C_ghost            -
 -                      6                                   C_ghost            -
 -                      7                                   C_ghost            -
 -                      8                                   C_ghost            -
 -                      9                                   C_ghost            -
 -                     10                                   C_ghost            -
 -                     11                                   C_ghost            -
 -                     12                                   C_ghost            -
 -                     13                                   C_ghost            -
 -                     14                                   C_ghost            -
 -                     15                                   C_ghost            -
 -                     16                                   C_ghost            -
 -                     17                                   C_ghost            -
 -                     18                                   C_ghost            -
 -                     19                                   C_ghost            -
 -                     20                                   C_ghost            -
 -                     21                                   C_ghost            -
 -                     22                                   C_ghost            -
 -                     23                                   C_ghost            -
 -                     24                                   C_ghost            -
 -                     25                                   C_ghost            -
 -                     26                                   C_ghost            -
 -                     27                                   C_ghost            -
 -                     28                                   C_ghost            -
 -                     29                                   C_ghost            -
 -                     30                                   C_ghost            -
 -                     31                                   C_ghost            -
 -                     32                                   C_ghost            -
 -                     33                                   C_ghost            -
 -                     34                                   C_ghost            -
 -                     35                                   C_ghost            -
 -                     36                                   C_ghost            -
 -                     37                                   C_ghost            -
 -                     38                                   C_ghost            -
 -                     39                                   C_ghost            -
 -                     40                                   C_ghost            -
 -                     41                                   C_ghost            -
 -                     42                                   C_ghost            -
 -                     43                                   C_ghost            -
 -                     44                                   C_ghost            -
 -                     45                                   C_ghost            -
 -                     46                                   C_ghost            -
 -                     47                                   C_ghost            -
 -                     48                                   C_ghost            -
 -                     49                                   C_ghost            -
 -                     50                                   C_ghost            -
 -                     51                                   C_ghost            -
 -                     52                                   C_ghost            -
 -                     53                                   C_ghost            -
 -                     54                                   C_ghost            -
 -                     55                                   C_ghost            -
 -                     56                                   C_ghost            -
 -                     57                                   C_ghost            -
 -                     58                                   C_ghost            -
 -                     59                                   C_ghost            -
 -                     60                                   C_ghost            -
 -                     61                                   C_ghost            -
 -                     62                                   C_ghost            -
 -                     63                                   C_ghost            -
 -                     64                                   C_ghost            -
 -                     65                                   C_ghost            -
 -                     66                                   C_ghost            -
 -                     67                                   C_ghost            -
 -                     68                                   C_ghost            -
 -                     69                                   C_ghost            -
 -                     70                                   C_ghost            -
 -                     71                                   C_ghost            -
 -                     72                                   C_ghost            -
 -                     73                                   C_ghost            -
 -                     74                                   C_ghost            -
 -                     75                                   C_ghost            -
 -                     76                                   C_ghost            -
 -                     77                                   C_ghost            -
 -                     78                                   C_ghost            -
 -                     79                                   C_ghost            -
 -                     80                                   C_ghost            -
 -                     81                                   C_ghost            -
 -                     82                                   C_ghost            -
 -                     83                                   C_ghost            -
 -                     84                                   C_ghost            -
 -                     85                                   C_ghost            -
 -                     86                                   C_ghost            -
 -                     87                                   C_ghost            -
 -                     88                                   C_ghost            -
 -                     89                                   C_ghost            -
 -                     90                                   C_ghost            -
 -                     91                                   C_ghost            -
 -                     92                                   C_ghost            -
 -                     93                                   C_ghost            -
 -                     94                                   C_ghost            -
 -                     95                                   C_ghost            -
 -                     96                                   C_ghost            -
 -                     97                                   C_ghost            -
 -                     98                                   C_ghost            -
 -                     99                                   C_ghost            -
 -                    100                                   C_ghost            -
 -                    101                                   C_ghost            -
 -                    102                                   C_ghost            -
 -                    103                                   C_ghost            -
 -                    104                                   C_ghost            -
 -                    105                                   C_ghost            -
 -                    106                                   C_ghost            -
 -                    107                                   C_ghost            -
 -                    108                                   C_ghost            -
 -                    109                                   C_ghost            -
 -                    110                                   C_ghost            -
 -                    111                                   C_ghost            -
 -                    112                                   C_ghost            -
 -                    113                                   Na                 -
 -------------------------------------------------------------------------------

 *******************************************************************************
 *******************************************************************************
 **                                                                           **
 **     #####                         ##              ##                      **
 **    ##   ##            ##          ##              ##                      **
 **   ##     ##                       ##            ######                    **
 **   ##     ##  ##   ##  ##   #####  ##  ##   ####   ##    #####    #####    **
 **   ##     ##  ##   ##  ##  ##      ## ##   ##      ##   ##   ##  ##   ##   **
 **   ##  ## ##  ##   ##  ##  ##      ####     ###    ##   ######   ######    **
 **    ##  ###   ##   ##  ##  ##      ## ##      ##   ##   ##       ##        **
 **     #######   #####   ##   #####  ##  ##  ####    ##    #####   ##        **
 **           ##                                                    ##        **
 **                                                                           **
 **                                                ... make the atoms dance   **
 **                                                                           **
 **            Copyright (C) by CP2K developers group (2000-2022)             **
 **                      J. Chem. Phys. 152, 194103 (2020)                    **
 **                                                                           **
 *******************************************************************************


 TOTAL NUMBERS AND MAXIMUM NUMBERS

  Total number of            - Atomic kinds:                                   2
                             - Atoms:                                        113
                             - Shell sets:                                   113
                             - Shells:                                       565
                             - Primitive Cartesian functions:                567
                             - Cartesian basis functions:                   1577
                             - Spherical basis functions:                   1465

  Maximum angular momentum of- Orbital basis functions:                        2
                             - Local part of the GTH pseudopotential:          2
                             - Non-local part of the GTH pseudopotential:      1


 SCF PARAMETERS         Density guess:                                    ATOMIC
                        --------------------------------------------------------
                        max_scf:                                             400
[...]
   208 Broy./Diag. 0.10E+00  180.3     0.00000141      -685.1663745585 -1.79E-06
   209 Broy./Diag. 0.10E+00  175.4     0.00000180      -685.1663730213  1.54E-06
   210 Broy./Diag. 0.10E+00  176.5     0.00000190      -685.1663711233  1.90E-06
   211 Broy./Diag. 0.10E+00  162.9     0.00000036      -685.1663693478  1.78E-06
   212 Broy./Diag. 0.10E+00  196.9     0.00000298      -685.1663703175 -9.70E-07
   213 Broy./Diag. 0.10E+00  219.9     0.00000099      -685.1663737035 -3.39E-06
   214 Broy./Diag. 0.10E+00  200.1     0.00000104      -685.1663725393  1.16E-06
   215 Broy./Diag. 0.10E+00  179.1     0.00000036      -685.1663713391  1.20E-06
   216 Broy./Diag. 0.10E+00  192.5     0.00000075      -685.1663709142  4.25E-07
   217 Broy./Diag. 0.10E+00  189.5     0.00000038      -685.1663716616 -7.47E-07
   218 Broy./Diag. 0.10E+00  206.6     0.00000032      -685.1663719914 -3.30E-07
   219 Broy./Diag. 0.10E+00  171.6     0.00000011      -685.1663716140  3.77E-07

  *** SCF run converged in   219 steps ***


  Electronic density on regular grids:       -457.0001217705       -0.0001217705
  Core density on regular grids:              456.9999999996       -0.0000000004
  Total charge density on r-space grids:       -0.0001217709
  Total charge density g-space grids:          -0.0001217709

  Overlap energy of the core charge distribution:               0.00001885266886
  Self energy of the core charge distribution:              -1590.12737799213005
  Core Hamiltonian energy:                                    498.21595112595531
  Hartree energy:                                             609.95464556803859
  Exchange-correlation energy:                               -203.06148777566841
  Dispersion energy:                                           -0.14576366652819
  Electronic entropic energy:                                  -0.00235772629750
  Fermi energy:                                                -0.06745190196348

  Total energy:                                              -685.16637161402502

  outer SCF iter =    1 RMS gradient =   0.11E-06 energy =       -685.1663716140
  outer SCF loop converged in   1 iterations or  219 steps


  Integrated absolute spin density  :                               0.1459879680
  WARNING: S**2 computation does not yet treat fractional occupied orbitals

 *** WARNING in qs_loc_utils.F:1500 :: User requested the calculation of ***
 *** the localized wavefunction but the section LOCALIZE was not         ***
 *** specified. Localization will not be performed!                      ***


 -------------------------------------------------------------------------------
 -                                                                             -
 -                                 BSSE RESULTS                                -
 -                                                                             -
 -                 CP-corrected Total energy:     -685.164681                  -
 -                                                                             -
 -                       1-body contribution:     -637.975573                  -
 -                       1-body contribution:      -47.166965                  -
 -                                                                             -
 -                       2-body contribution:       -0.022143                  -
 -                 BSSE-free interaction energy:       -0.022143               -
 -------------------------------------------------------------------------------

 -------------------------------------------------------------------------------
 -                                                                             -
 -                                DBCSR STATISTICS                             -
 -                                                                             -
 -------------------------------------------------------------------------------
 COUNTER                                    TOTAL       BLAS       SMM       ACC
 flops     9 x     9 x     8               221616     100.0%      0.0%      0.0%
 flops     9 x     9 x     9               570078     100.0%      0.0%      0.0%
 flops     9 x     9 x    68               881280     100.0%      0.0%      0.0%
 flops     9 x     9 x    72              2554416     100.0%      0.0%      0.0%
 flops     9 x     9 x    73              2589894     100.0%      0.0%      0.0%
 flops     9 x     9 x    32              5318784     100.0%      0.0%      0.0%
 flops     9 x     9 x    64              5370624     100.0%      0.0%      0.0%
 flops     9 x     9 x    96             16111872     100.0%      0.0%      0.0%
 flops    13 x     9 x     8             17926272     100.0%      0.0%      0.0%
 flops     9 x    13 x     8             17926272     100.0%      0.0%      0.0%
 flops    13 x     9 x     9             20167056     100.0%      0.0%      0.0%
 flops     9 x    13 x     9             20167056     100.0%      0.0%      0.0%
 flops    13 x     9 x    68             71285760     100.0%      0.0%      0.0%
 flops     9 x    13 x    68             71285760     100.0%      0.0%      0.0%
 flops    13 x     9 x    72            206623872     100.0%      0.0%      0.0%
 flops     9 x    13 x    72            206623872     100.0%      0.0%      0.0%
 flops    13 x     9 x    73            209493648     100.0%      0.0%      0.0%
 flops     9 x    13 x    73            209493648     100.0%      0.0%      0.0%
 flops    13 x     9 x    32            430230528     100.0%      0.0%      0.0%
 flops     9 x    13 x    32            430230528     100.0%      0.0%      0.0%
 flops    13 x     9 x    64            434423808     100.0%      0.0%      0.0%
 flops     9 x    13 x    64            434423808     100.0%      0.0%      0.0%
 flops    13 x     9 x    96           1303271424     100.0%      0.0%      0.0%
 flops     9 x    13 x    96           1303271424     100.0%      0.0%      0.0%
 flops    13 x    13 x     8           2925965952     100.0%      0.0%      0.0%
 flops    13 x    13 x     9           3291711696     100.0%      0.0%      0.0%
 flops    13 x    13 x    68          22689069312     100.0%      0.0%      0.0%
 flops    13 x    13 x    72          33725607552     100.0%      0.0%      0.0%
 flops    13 x    13 x    73          34194018768     100.0%      0.0%      0.0%
 flops    13 x    13 x    32          70223182848     100.0%      0.0%      0.0%
 flops    13 x    13 x    64          81311053824     100.0%      0.0%      0.0%
 flops    13 x    13 x    96         243933161472     100.0%      0.0%      0.0%
 flops inhomo. stacks                           0       0.0%      0.0%      0.0%
 flops total                       497.714235E+09     100.0%      0.0%      0.0%
 flops max/rank                     32.965229E+09     100.0%      0.0%      0.0%
 matmuls inhomo. stacks                         0       0.0%      0.0%      0.0%
 matmuls total                           24080972     100.0%      0.0%      0.0%
 number of processed stacks                 87644     100.0%      0.0%      0.0%
 average stack size                                   274.8       0.0       0.0
 marketing flops                   589.855392E+09
 -------------------------------------------------------------------------------
 # multiplications                           1156
 max memory usage/rank             915.554304E+06
 # max total images/rank                        1
 # max 3D layers                                1
 # MPI messages exchanged                  110976
 MPI messages size (bytes):
  total size                        16.175477E+09
  min size                           0.000000E+00
  max size                         286.464000E+03
  average size                     145.756531E+03
 MPI breakdown and total messages size (bytes):
             size <=      128               19800                        0
       128 < size <=     8192                1320                   855360
      8192 < size <=    32768                8208                204420240
     32768 < size <=   131072               24624               2308746240
    131072 < size <=  4194304               57024              13661469072
   4194304 < size <= 16777216                   0                        0
  16777216 < size                               0                        0
 -------------------------------------------------------------------------------
 -                                                                             -
 -                      DBCSR MESSAGE PASSING PERFORMANCE                      -
 -                                                                             -
 -------------------------------------------------------------------------------
 ROUTINE             CALLS      AVE VOLUME [Bytes]
 MP_Bcast               33                     12.
 MP_Allreduce         8185                      8.
 MP_Alltoall         32428                 226669.
 MP_ISend            18496                  60011.
 MP_IRecv            18496                  51479.
 -------------------------------------------------------------------------------

 -------------------------------------------------------------------------------
 -                                                                             -
 -                                DBM STATISTICS                               -
 -                                                                             -
 -------------------------------------------------------------------------------
    M  x    N  x    K                                          COUNT     PERCENT
 -------------------------------------------------------------------------------

 -------------------------------------------------------------------------------
 -                                                                             -
 -                                GRID STATISTICS                              -
 -                                                                             -
 -------------------------------------------------------------------------------
 LP    KERNEL             BACKEND                              COUNT     PERCENT
 4     collocate general  REF                               61855600      49.21%
 4     integrate general  REF                               61331400      48.79%
 3     collocate general  REF                                1206338       0.96%
 3     integrate general  REF                                1197980       0.95%
 2     collocate general  REF                                  53312       0.04%
 2     integrate general  REF                                  52920       0.04%
 0     collocate general  REF                                   5424       0.00%
 -------------------------------------------------------------------------------

 MEMORY| Estimated peak process memory [MiB]                                 874

 -------------------------------------------------------------------------------
 -                                                                             -
 -                         MESSAGE PASSING PERFORMANCE                         -
 -                                                                             -
 -------------------------------------------------------------------------------

 ROUTINE             CALLS      AVE VOLUME [Bytes]
 MP_Group               24
 MP_Bcast             1882                 510641.
 MP_Allreduce        12204                    421.
 MP_Sync              1400
 MP_Alltoall         14565               14737520.
 MP_SendRecv         66342                 355997.
 MP_ISendRecv        52020                 362400.
 MP_Wait             77617
 MP_comm_split         220
 MP_ISend            18616                2938218.
 MP_IRecv            18616                2938351.
 MP_Recv               378                 341789.
 -------------------------------------------------------------------------------


 -------------------------------------------------------------------------------
 -                                                                             -
 -                           R E F E R E N C E S                               -
 -                                                                             -
 -------------------------------------------------------------------------------
 
 CP2K version 2023.1, the CP2K developers group (2023).
 CP2K is freely available from https://www.cp2k.org/ .

 Kuehne,Thomas D.; Iannuzzi,Marcella; Del Ben,Mauro;
 Rybkin,Vladimir V.; Seewald,Patrick; Stein,Frederick; Laino,Teodoro;
 Khaliullin,Rustam Z.; Schuett,Ole; Schiffmann,Florian; Golze,Dorothea;
 Wilhelm,Jan; Chulkov,Sergey; Bani-Hashemian,Mohammad Hossein;
 Weber,Valery; Borstnik,Urban; Taillefumier,Mathieu;
 Jakobovits,Alice Shoshana; Lazzaro,Alfio; Pabst,Hans; Mueller,Tiziano;
 Schade,Robert; Guidon,Manuel; Andermatt,Samuel; Holmberg,Nico;
 Schenter,Gregory K.; Hehn,Anna; Bussy,Augustin; Belleflamme,Fabian;
 Tabacchi,Gloria; Gloess,Andreas; Lass,Michael; Bethune,Iain;
 Mundy,Christopher J.; Plessl,Christian; Watkins,Matt;
 VandeVondele,Joost; Krack,Matthias; Hutter,Juerg. 
 The Journal of Chemical Physics, 152 (19), (2020). 
 CP2K: An electronic structure and molecular dynamics software package -
 Quickstep: Efficient and accurate electronic structure calculations.
 https://doi.org/10.1063/5.0007045

 Goerigk, Lars; Hansen, Andreas; Bauer, Christoph; Ehrlich, Stephan;
 Najibi, Asim; Grimme, Stefan. , 19 (48), (2017). 
 A look at the density functional theory zoo with the advanced GMTKN55 database
 for general main group thermochemistry, kinetics and noncovalent interactions.
 https://doi.org/10.1039/C7CP04913G

 Schuett, Ole; Messmer, Peter; Hutter, Juerg; VandeVondele, Joost. 
 Electronic Structure Calculations on Graphics Processing Units, John
 Wiley & Sons, Ltd, 173-190 (2016). 
 GPU-Accelerated Sparse Matrix-Matrix Multiplication for
 Linear Scaling Density Functional Theory.
 https://doi.org/10.1002/9781118670712.ch8

 Borstnik, U; VandeVondele, J; Weber, V; Hutter, J. 
 PARALLEL COMPUTING, 40 (5-6), 47-58 (2014). 
 Sparse matrix multiplication: The distributed block-compressed sparse
 row library.
 https://doi.org/10.1016/j.parco.2014.03.012

 Hutter, J; Iannuzzi, M; Schiffmann, F; VandeVondele, J. 
 WIREs Comput Mol Sci., 4 (1), 15-25 (2014). 
 CP2K: atomistic simulations of condensed matter systems.
 https://doi.org/10.1002/wcms.1159

 Marek, A; Blum, V; Johanni, R; Havu, V; Lang, B; Auckenthaler, T;
 Heinecke, A; Bungartz, H; Lederer, H. 
 Journal of Physics: Condensed Matter, 26 (21), (2014). 
 The ELPA library: scalable parallel eigenvalue solutions for
 electronic structure
 theory and computational science.
 https://doi.org/10.1088/0953-8984/26/21/213201

 Grimme, S; Ehrlich, S; Goerigk, L. 
 JOURNAL OF COMPUTATIONAL CHEMISTRY, 32, 1456 (2011). 
 Effect of the damping function in dispersion corrected density functional theory.
 https://doi.org/10.1002/jcc.21759

 Grimme, S; Antony, J; Ehrlich, S; Krieg, H. 
 JOURNAL OF CHEMICAL PHYSICS, 132 (15), 154104 (2010). 
 A consistent and accurate ab initio parametrization of density
 functional dispersion correction (DFT-D) for the 94 elements H-Pu.
 https://doi.org/10.1063/1.3382344

 VandeVondele, J; Hutter, J. 
 JOURNAL OF CHEMICAL PHYSICS, 127 (11), 114105 (2007). 
 Gaussian basis sets for accurate calculations on molecular systems in
 gas and condensed phases.
 https://doi.org/10.1063/1.2770708

 Krack, M. 
 THEORETICAL CHEMISTRY ACCOUNTS, 114 (1-3), 145-152 (2005). 
 Pseudopotentials for H to Kr optimized for gradient-corrected
 exchange-correlation functionals.
 https://doi.org/10.1007/s00214-005-0655-y

 VandeVondele, J; Krack, M; Mohamed, F; Parrinello, M; Chassaing, T;
 Hutter, J. COMPUTER PHYSICS COMMUNICATIONS, 167 (2), 103-128 (2005). 
 QUICKSTEP: Fast and accurate density functional calculations using a
 mixed Gaussian and plane waves approach.
 https://doi.org/10.1016/j.cpc.2004.12.014

 Frigo, M; Johnson, SG. 
 PROCEEDINGS OF THE IEEE, 93 (2), 216-231 (2005). 
 The design and implementation of FFTW3.
 https://doi.org/10.1109/JPROC.2004.840301

 Hartwigsen, C; Goedecker, S; Hutter, J. 
 PHYSICAL REVIEW B, 58 (7), 3641-3662 (1998). 
 Relativistic separable dual-space Gaussian pseudopotentials from H to Rn.
 https://doi.org/10.1103/PhysRevB.58.3641

 Lippert, G; Hutter, J; Parrinello, M. 
 MOLECULAR PHYSICS, 92 (3), 477-487 (1997). 
 A hybrid Gaussian and plane wave density functional scheme.
 https://doi.org/10.1080/002689797170220

 Perdew, JP; Burke, K; Ernzerhof, M. 
 PHYSICAL REVIEW LETTERS, 77 (18), 3865-3868 (1996). 
 Generalized gradient approximation made simple.
 https://doi.org/10.1103/PhysRevLett.77.3865

 Goedecker, S; Teter, M; Hutter, J. 
 PHYSICAL REVIEW B, 54 (3), 1703-1710 (1996). 
 Separable dual-space Gaussian pseudopotentials.
 https://doi.org/10.1103/PhysRevB.54.1703


 -------------------------------------------------------------------------------
 -                                                                             -
 -                                T I M I N G                                  -
 -                                                                             -
 -------------------------------------------------------------------------------
 SUBROUTINE                       CALLS  ASD         SELF TIME        TOTAL TIME
                                MAXIMUM       AVERAGE  MAXIMUM  AVERAGE  MAXIMUM
 CP2K                                 1  1.0     0.89     0.97 42179.44 42179.45
 qs_energies                          5  2.0     0.00     0.01 42150.80 42150.95
 scf_env_do_scf                       5  3.0     0.00     0.00 42133.89 42134.23
 scf_env_do_scf_inner_loop          578  4.0     0.03     0.07 42133.89 42134.23
 qs_scf_new_mos                     578  5.0     0.02     0.03 37042.96 37043.97
 eigensolver                       1156  6.0     0.11     0.14 36043.21 36047.39
 cp_fm_diag_elpa                    936  7.0     0.01     0.01 32996.16 33007.38
 cp_fm_diag_elpa_base               936  8.0 32955.50 32966.71 32968.27 32970.86
 cp_fm_triangular_multiply         3468  7.0  3036.98  3057.24  3036.98  3057.24
 qs_ks_update_qs_env                578  5.0     0.01     0.01  2463.22  2464.25
 rebuild_ks_matrix                  578  6.0     0.00     0.01  2423.86  2425.09
 qs_ks_build_kohn_sham_matrix       578  7.0     0.15     0.18  2423.86  2425.09
 qs_rho_update_rho_low              583  5.0     0.01     0.01  1998.83  1999.86
 calculate_rho_elec                1166  6.0     4.13     4.68  1998.83  1999.86
 sum_up_and_integrate               578  8.0     6.94     7.47  1847.01  1848.39
 integrate_v_rspace                1156  9.0     0.06     0.10  1840.06  1841.92
 rs_pw_transfer                    9293  9.5     0.23     0.26  1365.17  1395.70
 density_rs2pw                     1166  7.0     0.10     0.14  1043.56  1075.21
 grid_collocate_task_list          1166  7.0   908.14   957.28   908.14   957.28
 grid_integrate_task_list          1156 10.0   883.31   922.55   883.31   922.55
 potential_pw2rs                   1156 10.0     0.25     0.30   849.51   854.25
 -------------------------------------------------------------------------------

 The number of warnings for this run is : 7
 
 -------------------------------------------------------------------------------
  **** **** ******  **  PROGRAM ENDED AT                 2025-07-11 01:17:45.879
 ***** ** ***  *** **   PROGRAM RAN ON                                sebnode130
 **    ****   ******    PROGRAM RAN BY                                    luehrs
 ***** **    ** ** **   PROGRAM PROCESS ID                               1119386
  **** **  *******  **  PROGRAM STOPPED IN /home/luehrs/PhD/Sodium_batteries/Sod
                                           ium-graphene-surface/Zig-Zag_2
