 DBCSR| Multiplication driver                                               XSMM
 DBCSR| Multrec recursion limit                                              512
 DBCSR| Multiplication stack size                                           1000
 DBCSR| Maximum elements for images                                    UNLIMITED
 DBCSR| Multiplicative factor virtual images                                   1
 DBCSR| Multiplication size stacks                                             3
 DBCSR| Number of 3D layers                                               SINGLE
 DBCSR| Use MPI memory allocation                                              T
 DBCSR| Use RMA algorithm                                                      F
 DBCSR| Use Communication thread                                               T
 DBCSR| Communication thread load                                             87


  **** **** ******  **  PROGRAM STARTED AT               2024-08-06 15:05:32.699
 ***** ** ***  *** **   PROGRAM STARTED ON                            sebnode048
 **    ****   ******    PROGRAM STARTED BY                                luehrs
 ***** **    ** ** **   PROGRAM PROCESS ID                                291870
  **** **  *******  **  PROGRAM STARTED IN /home/luehrs/PhD/Sodium_batteries/Sod
                                           ium-graphene-surface/Zig-Zag_2

 CP2K| version string:                    CP2K version 7.0 (Development Version)
 CP2K| source code revision number:                                             
 CP2K| cp2kflags: libint fftw3 libxc parallel mpi3 scalapack xsmm libderiv_max_a
 CP2K|            m1=8 libint_max_am=9 max_contr=4
 CP2K| is freely available from                            https://www.cp2k.org/
 CP2K| Program compiled at                         Sun Jun 24 14:37:16 CEST 2018
 CP2K| Program compiled on                                            sebstorage
 CP2K| Program compiled for                                Linux-x86-64-gfortran
 CP2K| Data directory path    /home/brehm/Software_Batchnode/2018/Source/cp2k_18
 CP2K| Input file name                                         input.zig-zag.inp

 GLOBAL| Force Environment number                                              1
 GLOBAL| Basis set file name                                      ./BASIS_MOLOPT
 GLOBAL| Potential file name                                    ./GTH_POTENTIALS
 GLOBAL| MM Potential file name                                     MM_POTENTIAL
 GLOBAL| Coordinate file name           graphene_zig-zag_no-hydrogen_sodium_rela
 GLOBAL| Method name                                                        CP2K
 GLOBAL| Project name                               graphene_zig_zag_sodium_BSSE
 GLOBAL| Preferred FFT library                                             FFTW3
 GLOBAL| Preferred diagonalization lib.                                       SL
 GLOBAL| Run type                                                           BSSE
 GLOBAL| All-to-all communication in single precision                          F
 GLOBAL| FFTs using library dependent lengths                                  F
 GLOBAL| Global print level                                               MEDIUM
 GLOBAL| Total number of message passing processes                            16
 GLOBAL| Number of threads for this process                                    1
 GLOBAL| This output is from process                                           0
 GLOBAL| CPU model name :  Intel(R) Xeon(R) CPU E5-2630 v3 @ 2.40GHz

 MEMORY| system memory details [Kb]
 MEMORY|                        rank 0           min           max       average
 MEMORY| MemTotal             65833008      65833008      65833008      65833008
 MEMORY| MemFree              23990008      23990008      23990008      23990008
 MEMORY| Buffers                163728        163728        163728        163728
 MEMORY| Cached                1014388       1014388       1014388       1014388
 MEMORY| Slab                   601064        601064        601064        601064
 MEMORY| SReclaimable           316172        316172        316172        316172
 MEMORY| MemLikelyFree        25484296      25484296      25484296      25484296


 *** Fundamental physical constants (SI units) ***

 *** Literature: B. J. Mohr and B. N. Taylor,
 ***             CODATA recommended values of the fundamental physical
 ***             constants: 2006, Web Version 5.1
 ***             http://physics.nist.gov/constants

 Speed of light in vacuum [m/s]                             2.99792458000000E+08
 Magnetic constant or permeability of vacuum [N/A**2]       1.25663706143592E-06
 Electric constant or permittivity of vacuum [F/m]          8.85418781762039E-12
 Planck constant (h) [J*s]                                  6.62606896000000E-34
 Planck constant (h-bar) [J*s]                              1.05457162825177E-34
 Elementary charge [C]                                      1.60217648700000E-19
 Electron mass [kg]                                         9.10938215000000E-31
 Electron g factor [ ]                                     -2.00231930436220E+00
 Proton mass [kg]                                           1.67262163700000E-27
 Fine-structure constant                                    7.29735253760000E-03
 Rydberg constant [1/m]                                     1.09737315685270E+07
 Avogadro constant [1/mol]                                  6.02214179000000E+23
 Boltzmann constant [J/K]                                   1.38065040000000E-23
 Atomic mass unit [kg]                                      1.66053878200000E-27
 Bohr radius [m]                                            5.29177208590000E-11

 *** Conversion factors ***

 [u] -> [a.u.]                                              1.82288848426455E+03
 [Angstrom] -> [Bohr] = [a.u.]                              1.88972613288564E+00
 [a.u.] = [Bohr] -> [Angstrom]                              5.29177208590000E-01
 [a.u.] -> [s]                                              2.41888432650478E-17
 [a.u.] -> [fs]                                             2.41888432650478E-02
 [a.u.] -> [J]                                              4.35974393937059E-18
 [a.u.] -> [N]                                              8.23872205491840E-08
 [a.u.] -> [K]                                              3.15774647902944E+05
 [a.u.] -> [kJ/mol]                                         2.62549961709828E+03
 [a.u.] -> [kcal/mol]                                       6.27509468713739E+02
 [a.u.] -> [Pa]                                             2.94210107994716E+13
 [a.u.] -> [bar]                                            2.94210107994716E+08
 [a.u.] -> [atm]                                            2.90362800883016E+08
 [a.u.] -> [eV]                                             2.72113838565563E+01
 [a.u.] -> [Hz]                                             6.57968392072181E+15
 [a.u.] -> [1/cm] (wave numbers)                            2.19474631370540E+05
 [a.u./Bohr**2] -> [1/cm]                                   5.14048714338585E+03
 

 CELL_TOP| Volume [angstrom^3]:                                         5900.012
 CELL_TOP| Vector a [angstrom    19.648     0.000     0.000    |a| =      19.648
 CELL_TOP| Vector b [angstrom     8.669    15.014     0.000    |b| =      17.337
 CELL_TOP| Vector c [angstrom     0.000     0.000    20.000    |c| =      20.000
 CELL_TOP| Angle (b,c), alpha [degree]:                                   90.000
 CELL_TOP| Angle (a,c), beta  [degree]:                                   90.000
 CELL_TOP| Angle (a,b), gamma [degree]:                                   60.000
 CELL_TOP| Requested initial symmetry:                                 TRICLINIC
 CELL_TOP| Numerically orthorhombic:                                          NO

 GENERATE|  Preliminary Number of Bonds generated:                             0
 GENERATE|  Achieved consistency in connectivity generation.

 CELL| Volume [angstrom^3]:                                             5900.012
 CELL| Vector a [angstrom]:      19.648     0.000     0.000    |a| =      19.648
 CELL| Vector b [angstrom]:       8.669    15.014     0.000    |b| =      17.337
 CELL| Vector c [angstrom]:       0.000     0.000    20.000    |c| =      20.000
 CELL| Angle (b,c), alpha [degree]:                                       90.000
 CELL| Angle (a,c), beta  [degree]:                                       90.000
 CELL| Angle (a,b), gamma [degree]:                                       60.000
 CELL| Requested initial symmetry:                                     TRICLINIC
 CELL| Numerically orthorhombic:                                              NO

 CELL_REF| Volume [angstrom^3]:                                         5900.012
 CELL_REF| Vector a [angstrom    19.648     0.000     0.000    |a| =      19.648
 CELL_REF| Vector b [angstrom     8.669    15.014     0.000    |b| =      17.337
 CELL_REF| Vector c [angstrom     0.000     0.000    20.000    |c| =      20.000
 CELL_REF| Angle (b,c), alpha [degree]:                                   90.000
 CELL_REF| Angle (a,c), beta  [degree]:                                   90.000
 CELL_REF| Angle (a,b), gamma [degree]:                                   60.000
 CELL_REF| Requested initial symmetry:                                 TRICLINIC
 CELL_REF| Numerically orthorhombic:                                          NO

 *******************************************************************************
 *******************************************************************************
 **                                                                           **
 **     #####                         ##              ##                      **
 **    ##   ##            ##          ##              ##                      **
 **   ##     ##                       ##            ######                    **
 **   ##     ##  ##   ##  ##   #####  ##  ##   ####   ##    #####    #####    **
 **   ##     ##  ##   ##  ##  ##      ## ##   ##      ##   ##   ##  ##   ##   **
 **   ##  ## ##  ##   ##  ##  ##      ####     ###    ##   ######   ######    **
 **    ##  ###   ##   ##  ##  ##      ## ##      ##   ##   ##       ##        **
 **     #######   #####   ##   #####  ##  ##  ####    ##    #####   ##        **
 **           ##                                                    ##        **
 **                                                                           **
 **                                                ... make the atoms dance   **
 **                                                                           **
 **            Copyright (C) by CP2K developers group (2000 - 2018)           **
 **                                                                           **
 *******************************************************************************

 DFT| Spin unrestricted (spin-polarized) Kohn-Sham calculation               UKS
 DFT| Multiplicity                                                             1
 DFT| Number of spin states                                                    2
 DFT| Charge                                                                   1
 DFT| Self-interaction correction (SIC)                                       NO
 DFT| Cutoffs: density                                              1.000000E-10
 DFT|          gradient                                             1.000000E-10
 DFT|          tau                                                  1.000000E-10
 DFT|          cutoff_smoothing_range                               0.000000E+00
 DFT| XC density smoothing                                                  NONE
 DFT| XC derivatives                                              SPLINE2_SMOOTH
 FUNCTIONAL| ROUTINE=NEW
 FUNCTIONAL| BECKE88:
 FUNCTIONAL| A. Becke, Phys. Rev. A 38, 3098 (1988) {LSD version}               
 FUNCTIONAL| LYP:
 FUNCTIONAL| C. Lee, W. Yang, R.G. Parr, Phys. Rev. B, 37, 785 (1988) {LSD versi
 FUNCTIONAL| on}                                                                
 vdW POTENTIAL|                                                   Pair Potential
 vdW POTENTIAL|          DFT-D3 (Version 3.1)
 vdW POTENTIAL|          Potential Form: S. Grimme et al, JCP 132: 154104 (2010)
 vdW POTENTIAL|          Zero Damping
 vdW POTENTIAL|          Cutoff Radius [Bohr]:                             20.00
 vdW POTENTIAL|          s6 Scaling Factor:                               1.0000
 vdW POTENTIAL|          sr6 Scaling Factor:                              1.0940
 vdW POTENTIAL|          s8 Scaling Factor:                               1.6820
 vdW POTENTIAL|          Cutoff for CN calculation:                   0.1000E-05

 QS| Method:                                                                 GPW
 QS| Density plane wave grid type                        NON-SPHERICAL FULLSPACE
 QS| Number of grid levels:                                                    4
 QS| Density cutoff [a.u.]:                                                150.0
 QS| Multi grid cutoff [a.u.]: 1) grid level                               150.0
 QS|                           2) grid level                                50.0
 QS|                           3) grid level                                16.7
 QS|                           4) grid level                                 5.6
 QS| Grid level progression factor:                                          3.0
 QS| Relative density cutoff [a.u.]:                                        20.0
 QS| Consistent realspace mapping and integration 
 QS| Interaction thresholds: eps_pgf_orb:                                1.0E-06
 QS|                         eps_filter_matrix:                          0.0E+00
 QS|                         eps_core_charge:                            1.0E-14
 QS|                         eps_rho_gspace:                             1.0E-12
 QS|                         eps_rho_rspace:                             1.0E-12
 QS|                         eps_gvg_rspace:                             1.0E-06
 QS|                         eps_ppl:                                    1.0E-02
 QS|                         eps_ppnl:                                   1.0E-08


 ATOMIC KIND INFORMATION

  1. Atomic kind: C                                     Number of atoms:     112

     Orbital Basis Set                                        DZVP-MOLOPT-SR-GTH

       Number of orbital shell sets:                                           1
       Number of orbital shells:                                               5
       Number of primitive Cartesian functions:                                5
       Number of Cartesian basis functions:                                   14
       Number of spherical basis functions:                                   13
       Norm type:                                                              2

       Normalised Cartesian orbitals:

                        Set   Shell   Orbital            Exponent    Coefficient

                          1       1    2s                5.605331       0.322515
                                                         2.113016       0.213043
                                                         0.769911      -0.209686
                                                         0.348157      -0.219794
                                                         0.128212      -0.022789

                          1       2    3s                5.605331       0.552234
                                                         2.113016       0.082072
                                                         0.769911       0.007843
                                                         0.348157       0.136893
                                                         0.128212       0.074283

                          1       3    3px               5.605331      -0.703879
                                                         2.113016      -0.642521
                                                         0.769911      -0.374851
                                                         0.348157      -0.139743
                                                         0.128212      -0.027849
                          1       3    3py               5.605331      -0.703879
                                                         2.113016      -0.642521
                                                         0.769911      -0.374851
                                                         0.348157      -0.139743
                                                         0.128212      -0.027849
                          1       3    3pz               5.605331      -0.703879
                                                         2.113016      -0.642521
                                                         0.769911      -0.374851
                                                         0.348157      -0.139743
                                                         0.128212      -0.027849

                          1       4    4px               5.605331      -0.480376
                                                         2.113016      -0.552894
                                                         0.769911      -0.316145
                                                         0.348157       0.210505
                                                         0.128212       0.076095
                          1       4    4py               5.605331      -0.480376
                                                         2.113016      -0.552894
                                                         0.769911      -0.316145
                                                         0.348157       0.210505
                                                         0.128212       0.076095
                          1       4    4pz               5.605331      -0.480376
                                                         2.113016      -0.552894
                                                         0.769911      -0.316145
                                                         0.348157       0.210505
                                                         0.128212       0.076095

                          1       5    4dx2              5.605331       0.640026
                                                         2.113016       0.274300
                                                         0.769911       0.446711
                                                         0.348157       0.028674
                                                         0.128212       0.029790
                          1       5    4dxy              5.605331       1.108557
                                                         2.113016       0.475102
                                                         0.769911       0.773726
                                                         0.348157       0.049666
                                                         0.128212       0.051599
                          1       5    4dxz              5.605331       1.108557
                                                         2.113016       0.475102
                                                         0.769911       0.773726
                                                         0.348157       0.049666
                                                         0.128212       0.051599
                          1       5    4dy2              5.605331       0.640026
                                                         2.113016       0.274300
                                                         0.769911       0.446711
                                                         0.348157       0.028674
                                                         0.128212       0.029790
                          1       5    4dyz              5.605331       1.108557
                                                         2.113016       0.475102
                                                         0.769911       0.773726
                                                         0.348157       0.049666
                                                         0.128212       0.051599
                          1       5    4dz2              5.605331       0.640026
                                                         2.113016       0.274300
                                                         0.769911       0.446711
                                                         0.348157       0.028674
                                                         0.128212       0.029790

     GTH Potential information for                                    GTH-PBE-q4

       Description:                       Goedecker-Teter-Hutter pseudopotential
                                           Goedecker et al., PRB 54, 1703 (1996)
                                          Hartwigsen et al., PRB 58, 3641 (1998)
                                                      Krack, TCA 114, 145 (2005)

       Gaussian exponent of the core charge distribution:               4.364419
       Electronic configuration (s p d ...):                               2   2

       Parameters of the local part of the GTH pseudopotential:

                          rloc        C1          C2          C3          C4
                        0.338471   -8.803674    1.339211

       Parameters of the non-local part of the GTH pseudopotential:

                   l      r(l)      h(i,j,l)

                   0    0.302576    9.622487
                   1    0.291507

  2. Atomic kind: Na                                    Number of atoms:       1

     Orbital Basis Set                                        DZVP-MOLOPT-SR-GTH

       Number of orbital shell sets:                                           1
       Number of orbital shells:                                               5
       Number of primitive Cartesian functions:                                7
       Number of Cartesian basis functions:                                    9
       Number of spherical basis functions:                                    9
       Norm type:                                                              2

       Normalised Cartesian orbitals:

                        Set   Shell   Orbital            Exponent    Coefficient

                          1       1    2s               23.518801       0.288931
                                                        11.135656       0.787174
                                                         4.647814      -0.190850
                                                         1.866708      -0.573823
                                                         0.734684      -0.276866
                                                         0.275673      -0.024211
                                                         0.049895      -0.000019

                          1       2    3s               23.518801       0.039212
                                                        11.135656       0.138585
                                                         4.647814      -0.048916
                                                         1.866708      -0.102378
                                                         0.734684      -0.139633
                                                         0.275673       0.012767
                                                         0.049895       0.077569

                          1       3    4s               23.518801       0.303698
                                                        11.135656      -0.548845
                                                         4.647814       0.534441
                                                         1.866708      -0.220920
                                                         0.734684       0.980584
                                                         0.275673      -0.653367
                                                         0.049895       0.063703

                          1       4    3px              23.518801      -2.919466
                                                        11.135656      -2.855941
                                                         4.647814      -2.579491
                                                         1.866708      -1.208264
                                                         0.734684      -0.321406
                                                         0.275673      -0.035032
                                                         0.049895      -0.000067
                          1       4    3py              23.518801      -2.919466
                                                        11.135656      -2.855941
                                                         4.647814      -2.579491
                                                         1.866708      -1.208264
                                                         0.734684      -0.321406
                                                         0.275673      -0.035032
                                                         0.049895      -0.000067
                          1       4    3pz              23.518801      -2.919466
                                                        11.135656      -2.855941
                                                         4.647814      -2.579491
                                                         1.866708      -1.208264
                                                         0.734684      -0.321406
                                                         0.275673      -0.035032
                                                         0.049895      -0.000067

                          1       5    4px              23.518801      -0.381914
                                                        11.135656      -0.488169
                                                         4.647814      -0.407378
                                                         1.866708      -0.201739
                                                         0.734684      -0.078845
                                                         0.275673       0.043427
                                                         0.049895       0.031563
                          1       5    4py              23.518801      -0.381914
                                                        11.135656      -0.488169
                                                         4.647814      -0.407378
                                                         1.866708      -0.201739
                                                         0.734684      -0.078845
                                                         0.275673       0.043427
                                                         0.049895       0.031563
                          1       5    4pz              23.518801      -0.381914
                                                        11.135656      -0.488169
                                                         4.647814      -0.407378
                                                         1.866708      -0.201739
                                                         0.734684      -0.078845
                                                         0.275673       0.043427
                                                         0.049895       0.031563

     GTH Potential information for                                    GTH-PBE-q9

       Description:                       Goedecker-Teter-Hutter pseudopotential
                                           Goedecker et al., PRB 54, 1703 (1996)
                                          Hartwigsen et al., PRB 58, 3641 (1998)
                                                      Krack, TCA 114, 145 (2005)

       Gaussian exponent of the core charge distribution:               8.937631
       Electronic configuration (s p d ...):                               3   6

       Parameters of the local part of the GTH pseudopotential:

                          rloc        C1          C2          C3          C4
                        0.236523    0.295105   -0.913885

       Parameters of the non-local part of the GTH pseudopotential:

                   l      r(l)      h(i,j,l)

                   0    0.143560   34.601492
                   1    0.129932  -14.277462


 MOLECULE KIND INFORMATION


 All atoms are their own molecule, skipping detailed information


 TOTAL NUMBERS AND MAXIMUM NUMBERS

  Total number of            - Atomic kinds:                                   2
                             - Atoms:                                        113
                             - Shell sets:                                   113
                             - Shells:                                       565
                             - Primitive Cartesian functions:                567
                             - Cartesian basis functions:                   1577
                             - Spherical basis functions:                   1465

  Maximum angular momentum of- Orbital basis functions:                        2
                             - Local part of the GTH pseudopotential:          2
                             - Non-local part of the GTH pseudopotential:      1


 MODULE QUICKSTEP:  ATOMIC COORDINATES IN angstrom

  Atom  Kind  Element       X           Y           Z          Z(eff)       Mass

       1     1 C    6    8.618622   14.930295    0.048766      4.00      12.0107
       2     1 C    6    9.847457   15.649491    0.049128      4.00      12.0107
       3     1 C    6   11.074408   14.931098    0.055596      4.00      12.0107
       4     1 C    6   12.304861   15.648276    0.038662      4.00      12.0107
       5     1 C    6   13.531940   14.929137    0.021104      4.00      12.0107
       6     1 C    6   14.761373   15.645406   -0.023206      4.00      12.0107
       7     1 C    6   15.986821   14.924276   -0.059579      4.00      12.0107
       8     1 C    6   17.216202   15.640764   -0.092125      4.00      12.0107
       9     1 C    6   18.443052   14.923229   -0.126706      4.00      12.0107
      10     1 C    6   19.672361   15.642873   -0.123398      4.00      12.0107
      11     1 C    6   20.899040   14.923152   -0.126566      4.00      12.0107
      12     1 C    6   22.128279   15.640881   -0.092418      4.00      12.0107
      13     1 C    6   23.356267   14.924920   -0.067302      4.00      12.0107
      14     1 C    6   24.584863   15.647175   -0.035886      4.00      12.0107
      15     1 C    6   25.814564   14.934347   -0.000033      4.00      12.0107
      16     1 C    6   27.041732   15.651166    0.025030      4.00      12.0107
      17     1 C    6   25.800012   13.505351    0.004673      4.00      12.0107
      18     1 C    6   23.345616   13.499792   -0.078368      4.00      12.0107
      19     1 C    6   20.889713   13.498254   -0.141339      4.00      12.0107
      20     1 C    6   18.433880   13.498074   -0.138834      4.00      12.0107
      21     1 C    6   15.978309   13.499071   -0.065920      4.00      12.0107
      22     1 C    6   14.749237   12.781313   -0.024647      4.00      12.0107
      23     1 C    6   13.523638   13.503612    0.023128      4.00      12.0107
      24     1 C    6   12.292176   12.787908    0.047213      4.00      12.0107
      25     1 C    6   11.062734   13.505710    0.060867      4.00      12.0107
      26     1 C    6    9.832214   12.785207    0.062507      4.00      12.0107
      27     1 C    6    8.605404   13.504586    0.056588      4.00      12.0107
      28     1 C    6    7.376855   12.783747    0.039222      4.00      12.0107
      29     1 C    6   24.572584   12.782384   -0.039487      4.00      12.0107
      30     1 C    6   22.117093   12.780067   -0.122739      4.00      12.0107
      31     1 C    6   19.660744   12.778804   -0.151555      4.00      12.0107
      32     1 C    6   17.204677   12.779471   -0.114317      4.00      12.0107
      33     1 C    6   24.561967   11.355910   -0.044575      4.00      12.0107
      34     1 C    6   23.333094   10.635747   -0.091336      4.00      12.0107
      35     1 C    6   22.107116   11.354783   -0.127192      4.00      12.0107
      36     1 C    6   20.878218   10.634998   -0.141170      4.00      12.0107
      37     1 C    6   19.651234   11.353727   -0.149443      4.00      12.0107
      38     1 C    6   18.422065   10.634571   -0.135709      4.00      12.0107
      39     1 C    6   17.195609   11.354255   -0.115223      4.00      12.0107
      40     1 C    6   15.966870   10.635201   -0.071791      4.00      12.0107
      41     1 C    6   14.740488   11.355503   -0.032239      4.00      12.0107
      42     1 C    6   13.510327   10.635109   -0.000310      4.00      12.0107
      43     1 C    6   12.282684   11.358243    0.037108      4.00      12.0107
      44     1 C    6   11.047715   10.633891    0.045681      4.00      12.0107
      45     1 C    6    9.818682   11.357717    0.056935      4.00      12.0107
      46     1 C    6    8.591343   10.635221    0.048025      4.00      12.0107
      47     1 C    6    7.366184   11.356908    0.036618      4.00      12.0107
      48     1 C    6    6.139733   10.635573   -0.001039      4.00      12.0107
      49     1 C    6    6.129549    9.209756   -0.017332      4.00      12.0107
      50     1 C    6    7.355661    8.489080   -0.003621      4.00      12.0107
      51     1 C    6    8.583772    9.208489    0.026135      4.00      12.0107
      52     1 C    6    9.810133    8.486549    0.015881      4.00      12.0107
      53     1 C    6   11.040535    9.203645    0.023457      4.00      12.0107
      54     1 C    6   12.270407    8.485604   -0.007317      4.00      12.0107
      55     1 C    6   13.499852    9.207115   -0.017832      4.00      12.0107
      56     1 C    6   14.728088    8.488817   -0.041618      4.00      12.0107
      57     1 C    6   15.956386    9.209471   -0.064016      4.00      12.0107
      58     1 C    6   17.183232    8.490016   -0.082085      4.00      12.0107
      59     1 C    6   18.411727    9.209465   -0.116246      4.00      12.0107
      60     1 C    6   19.639023    8.490660   -0.110927      4.00      12.0107
      61     1 C    6   20.867880    9.209910   -0.122166      4.00      12.0107
      62     1 C    6   22.094488    8.490672   -0.091891      4.00      12.0107
      63     1 C    6   23.322876    9.210310   -0.077340      4.00      12.0107
      64     1 C    6   22.086350    7.065983   -0.066110      4.00      12.0107
      65     1 C    6   20.857594    6.347198   -0.060293      4.00      12.0107
      66     1 C    6   19.630516    7.066285   -0.075569      4.00      12.0107
      67     1 C    6   18.401710    6.346796   -0.059779      4.00      12.0107
      68     1 C    6   17.174242    7.065058   -0.062425      4.00      12.0107
      69     1 C    6   15.945606    6.344959   -0.050076      4.00      12.0107
      70     1 C    6   14.718233    7.063199   -0.044862      4.00      12.0107
      71     1 C    6   13.489586    6.342953   -0.041714      4.00      12.0107
      72     1 C    6   12.261744    7.060370   -0.029382      4.00      12.0107
      73     1 C    6   11.031960    6.342200   -0.033879      4.00      12.0107
      74     1 C    6    9.804548    7.061361   -0.019871      4.00      12.0107
      75     1 C    6    8.575542    6.343128   -0.033368      4.00      12.0107
      76     1 C    6    7.349168    7.063510   -0.028644      4.00      12.0107
      77     1 C    6    6.120422    6.344935   -0.041557      4.00      12.0107
      78     1 C    6    4.893864    7.065126   -0.046994      4.00      12.0107
      79     1 C    6    4.901413    8.490732   -0.047368      4.00      12.0107
      80     1 C    6    3.665081    6.346341   -0.051180      4.00      12.0107
      81     1 C    6    3.656018    4.921094   -0.038154      4.00      12.0107
      82     1 C    6    4.882807    4.201387   -0.035493      4.00      12.0107
      83     1 C    6    6.111957    4.919388   -0.043732      4.00      12.0107
      84     1 C    6    7.338536    4.199259   -0.047632      4.00      12.0107
      85     1 C    6    8.567378    4.917661   -0.047137      4.00      12.0107
      86     1 C    6    9.794042    4.198008   -0.054757      4.00      12.0107
      87     1 C    6   11.023273    4.916782   -0.049205      4.00      12.0107
      88     1 C    6   12.250773    4.198200   -0.054842      4.00      12.0107
      89     1 C    6   13.479646    4.917777   -0.048299      4.00      12.0107
      90     1 C    6   14.706764    4.199584   -0.048441      4.00      12.0107
      91     1 C    6   15.935398    4.919817   -0.046446      4.00      12.0107
      92     1 C    6   17.162988    4.202307   -0.039547      4.00      12.0107
      93     1 C    6   18.391719    4.921923   -0.042735      4.00      12.0107
      94     1 C    6   19.619120    4.203889   -0.028551      4.00      12.0107
      95     1 C    6   20.848002    4.922413   -0.038049      4.00      12.0107
      96     1 C    6   19.610588    2.779714    0.002567      4.00      12.0107
      97     1 C    6   18.382373    2.061301    0.002796      4.00      12.0107
      98     1 C    6   17.154145    2.777647   -0.026629      4.00      12.0107
      99     1 C    6   15.925452    2.057464   -0.039469      4.00      12.0107
     100     1 C    6   14.697766    2.774379   -0.052700      4.00      12.0107
     101     1 C    6   13.469682    2.053196   -0.071527      4.00      12.0107
     102     1 C    6   12.242789    2.772829   -0.072818      4.00      12.0107
     103     1 C    6   11.013815    2.053911   -0.091869      4.00      12.0107
     104     1 C    6    9.786341    2.772565   -0.073425      4.00      12.0107
     105     1 C    6    8.557409    2.053123   -0.071934      4.00      12.0107
     106     1 C    6    6.101663    2.056340   -0.032008      4.00      12.0107
     107     1 C    6    7.331004    2.773733   -0.051246      4.00      12.0107
     108     1 C    6    4.874971    2.776352   -0.017709      4.00      12.0107
     109     1 C    6    3.645753    2.059023    0.015158      4.00      12.0107
     110     1 C    6    2.418408    2.778266    0.009139      4.00      12.0107
     111     1 C    6    2.426741    4.202820   -0.025121      4.00      12.0107
     112     1 C    6    1.189266    2.060244    0.026294      4.00      12.0107
     113     2 Na  11   11.733498   10.928084    2.638695      9.00      22.9898




 SCF PARAMETERS         Density guess:                                    ATOMIC
                        --------------------------------------------------------
                        max_scf:                                             400
                        max_scf_history:                                       0
                        max_diis:                                              4
                        --------------------------------------------------------
                        eps_scf:                                        3.00E-07
                        eps_scf_history:                                0.00E+00
                        eps_diis:                                       1.00E-01
                        eps_eigval:                                     1.00E-05
                        --------------------------------------------------------
                        level_shift [a.u.]:                                 0.00
                        added MOs                                       100  100
                        --------------------------------------------------------
                        Mixing method:                            BROYDEN_MIXING
                                                charge density mixing in g-space
                        --------------------------------------------------------
                        Smear method:                                FERMI_DIRAC
                        Electronic temperature [K]:                        300.0
                        Electronic temperature [a.u.]:                  9.50E-04
                        Accuracy threshold:                             1.00E-10
                        --------------------------------------------------------
                        Outer loop SCF in use 
                        No variables optimised in outer loop
                        eps_scf                                         1.00E-06
                        max_scf                                              100
                        DIIS optimization
                        DIIS buffer length                                     3
                        step_size                                       5.00E-01

 PW_GRID| Information for grid number                                          1
 PW_GRID| Grid distributed over                                    16 processors
 PW_GRID| Real space group dimensions                                    16    1
 PW_GRID| the grid is blocked:                                                NO
 PW_GRID| Cutoff [a.u.]                                                    150.0
 PW_GRID| spherical cutoff:                                                   NO
 PW_GRID|   Bounds   1           -108     107                Points:         216
 PW_GRID|   Bounds   2            -96      95                Points:         192
 PW_GRID|   Bounds   3           -108     107                Points:         216
 PW_GRID| Volume element (a.u.^3)  0.4445E-02     Volume (a.u.^3)     39815.2579
 PW_GRID| Grid span                                                    FULLSPACE
 PW_GRID|   Distribution                         Average         Max         Min
 PW_GRID|   G-Vectors                           559872.0      559872      559872
 PW_GRID|   G-Rays                                2592.0        2592        2592
 PW_GRID|   Real Space Points                   559872.0      580608      539136

 PW_GRID| Information for grid number                                          2
 PW_GRID| Grid distributed over                                    16 processors
 PW_GRID| Real space group dimensions                                    16    1
 PW_GRID| the grid is blocked:                                                NO
 PW_GRID| Cutoff [a.u.]                                                     50.0
 PW_GRID| spherical cutoff:                                                   NO
 PW_GRID|   Bounds   1            -60      59                Points:         120
 PW_GRID|   Bounds   2            -54      53                Points:         108
 PW_GRID|   Bounds   3            -62      62                Points:         125
 PW_GRID| Volume element (a.u.^3)  0.2458E-01     Volume (a.u.^3)     39815.2579
 PW_GRID| Grid span                                                    FULLSPACE
 PW_GRID|   Distribution                         Average         Max         Min
 PW_GRID|   G-Vectors                           101250.0      102000      100680
 PW_GRID|   G-Rays                                 843.8         850         839
 PW_GRID|   Real Space Points                   101250.0      108000       94500

 PW_GRID| Information for grid number                                          3
 PW_GRID| Grid distributed over                                    16 processors
 PW_GRID| Real space group dimensions                                    16    1
 PW_GRID| the grid is blocked:                                                NO
 PW_GRID| Cutoff [a.u.]                                                     16.7
 PW_GRID| spherical cutoff:                                                   NO
 PW_GRID|   Bounds   1            -36      35                Points:          72
 PW_GRID|   Bounds   2            -32      31                Points:          64
 PW_GRID|   Bounds   3            -36      35                Points:          72
 PW_GRID| Volume element (a.u.^3)  0.1200         Volume (a.u.^3)     39815.2579
 PW_GRID| Grid span                                                    FULLSPACE
 PW_GRID|   Distribution                         Average         Max         Min
 PW_GRID|   G-Vectors                            20736.0       20808       20664
 PW_GRID|   G-Rays                                 288.0         289         287
 PW_GRID|   Real Space Points                    20736.0       23040       18432

 PW_GRID| Information for grid number                                          4
 PW_GRID| Grid distributed over                                    16 processors
 PW_GRID| Real space group dimensions                                    16    1
 PW_GRID| the grid is blocked:                                                NO
 PW_GRID| Cutoff [a.u.]                                                      5.6
 PW_GRID| spherical cutoff:                                                   NO
 PW_GRID|   Bounds   1            -20      19                Points:          40
 PW_GRID|   Bounds   2            -18      17                Points:          36
 PW_GRID|   Bounds   3            -22      22                Points:          45
 PW_GRID| Volume element (a.u.^3)  0.6144         Volume (a.u.^3)     39815.2579
 PW_GRID| Grid span                                                    FULLSPACE
 PW_GRID|   Distribution                         Average         Max         Min
 PW_GRID|   G-Vectors                             4050.0        4120        3960
 PW_GRID|   G-Rays                                 101.2         103          99
 PW_GRID|   Real Space Points                     4050.0        4860        3240

 POISSON| Solver                                                        PERIODIC
 POISSON| Periodicity                                                        XYZ

 RS_GRID| Information for grid number                                          1
 RS_GRID|   Bounds   1           -108     107                Points:         216
 RS_GRID|   Bounds   2            -96      95                Points:         192
 RS_GRID|   Bounds   3           -108     107                Points:         216
 RS_GRID| Real space distribution over                                  4 groups
 RS_GRID| Real space distribution along direction                              1
 RS_GRID| Border size                                                         35
 RS_GRID| Real space distribution over                                  4 groups
 RS_GRID| Real space distribution along direction                              3
 RS_GRID| Border size                                                         35
 RS_GRID|   Distribution                         Average         Max         Min
 RS_GRID|   Planes                                 124.0         124         124
 RS_GRID|   Distribution                         Average         Max         Min
 RS_GRID|   Planes                                 124.0         124         124

 RS_GRID| Information for grid number                                          2
 RS_GRID|   Bounds   1            -60      59                Points:         120
 RS_GRID|   Bounds   2            -54      53                Points:         108
 RS_GRID|   Bounds   3            -62      62                Points:         125
 RS_GRID| Real space fully replicated
 RS_GRID| Group size                                                           1

 RS_GRID| Information for grid number                                          3
 RS_GRID|   Bounds   1            -36      35                Points:          72
 RS_GRID|   Bounds   2            -32      31                Points:          64
 RS_GRID|   Bounds   3            -36      35                Points:          72
 RS_GRID| Real space fully replicated
 RS_GRID| Group size                                                           1

 RS_GRID| Information for grid number                                          4
 RS_GRID|   Bounds   1            -20      19                Points:          40
 RS_GRID|   Bounds   2            -18      17                Points:          36
 RS_GRID|   Bounds   3            -22      22                Points:          45
 RS_GRID| Real space fully replicated
 RS_GRID| Group size                                                           1

 -------------------------------------------------------------------------------
 -                                                                             -
 -  BSSE CALCULATION         FRAGMENT CONF: 10        FRAGMENT SUBCONF: 10     -
 -                           CHARGE =     0           MULTIPLICITY =     0     -
 -                                                                             -
 -                 ATOM INDEX                              ATOM NAME           -
 -                 ----------                              ---------           -
 -                      1                                   C                  -
 -                      2                                   C                  -
 -                      3                                   C                  -
 -                      4                                   C                  -
 -                      5                                   C                  -
 -                      6                                   C                  -
 -                      7                                   C                  -
 -                      8                                   C                  -
 -                      9                                   C                  -
 -                     10                                   C                  -
 -                     11                                   C                  -
 -                     12                                   C                  -
 -                     13                                   C                  -
 -                     14                                   C                  -
 -                     15                                   C                  -
 -                     16                                   C                  -
 -                     17                                   C                  -
 -                     18                                   C                  -
 -                     19                                   C                  -
 -                     20                                   C                  -
 -                     21                                   C                  -
 -                     22                                   C                  -
 -                     23                                   C                  -
 -                     24                                   C                  -
 -                     25                                   C                  -
 -                     26                                   C                  -
 -                     27                                   C                  -
 -                     28                                   C                  -
 -                     29                                   C                  -
 -                     30                                   C                  -
 -                     31                                   C                  -
 -                     32                                   C                  -
 -                     33                                   C                  -
 -                     34                                   C                  -
 -                     35                                   C                  -
 -                     36                                   C                  -
 -                     37                                   C                  -
 -                     38                                   C                  -
 -                     39                                   C                  -
 -                     40                                   C                  -
 -                     41                                   C                  -
 -                     42                                   C                  -
 -                     43                                   C                  -
 -                     44                                   C                  -
 -                     45                                   C                  -
 -                     46                                   C                  -
 -                     47                                   C                  -
 -                     48                                   C                  -
 -                     49                                   C                  -
 -                     50                                   C                  -
 -                     51                                   C                  -
 -                     52                                   C                  -
 -                     53                                   C                  -
 -                     54                                   C                  -
 -                     55                                   C                  -
 -                     56                                   C                  -
 -                     57                                   C                  -
 -                     58                                   C                  -
 -                     59                                   C                  -
 -                     60                                   C                  -
 -                     61                                   C                  -
 -                     62                                   C                  -
 -                     63                                   C                  -
 -                     64                                   C                  -
 -                     65                                   C                  -
 -                     66                                   C                  -
 -                     67                                   C                  -
 -                     68                                   C                  -
 -                     69                                   C                  -
 -                     70                                   C                  -
 -                     71                                   C                  -
 -                     72                                   C                  -
 -                     73                                   C                  -
 -                     74                                   C                  -
 -                     75                                   C                  -
 -                     76                                   C                  -
 -                     77                                   C                  -
 -                     78                                   C                  -
 -                     79                                   C                  -
 -                     80                                   C                  -
 -                     81                                   C                  -
 -                     82                                   C                  -
 -                     83                                   C                  -
 -                     84                                   C                  -
 -                     85                                   C                  -
 -                     86                                   C                  -
 -                     87                                   C                  -
 -                     88                                   C                  -
 -                     89                                   C                  -
 -                     90                                   C                  -
 -                     91                                   C                  -
 -                     92                                   C                  -
 -                     93                                   C                  -
 -                     94                                   C                  -
 -                     95                                   C                  -
 -                     96                                   C                  -
 -                     97                                   C                  -
 -                     98                                   C                  -
 -                     99                                   C                  -
 -                    100                                   C                  -
 -                    101                                   C                  -
 -                    102                                   C                  -
 -                    103                                   C                  -
 -                    104                                   C                  -
 -                    105                                   C                  -
 -                    106                                   C                  -
 -                    107                                   C                  -
 -                    108                                   C                  -
 -                    109                                   C                  -
 -                    110                                   C                  -
 -                    111                                   C                  -
 -                    112                                   C                  -
 -------------------------------------------------------------------------------

 CELL| Volume [angstrom^3]:                                             5900.012
 CELL| Vector a [angstrom]:      19.648     0.000     0.000    |a| =      19.648
 CELL| Vector b [angstrom]:       8.669    15.014     0.000    |b| =      17.337
 CELL| Vector c [angstrom]:       0.000     0.000    20.000    |c| =      20.000
 CELL| Angle (b,c), alpha [degree]:                                       90.000
 CELL| Angle (a,c), beta  [degree]:                                       90.000
 CELL| Angle (a,b), gamma [degree]:                                       60.000
 CELL| Requested initial symmetry:                                     TRICLINIC
 CELL| Numerically orthorhombic:                                              NO

 CELL_REF| Volume [angstrom^3]:                                         5900.012
 CELL_REF| Vector a [angstrom    19.648     0.000     0.000    |a| =      19.648
 CELL_REF| Vector b [angstrom     8.669    15.014     0.000    |b| =      17.337
 CELL_REF| Vector c [angstrom     0.000     0.000    20.000    |c| =      20.000
 CELL_REF| Angle (b,c), alpha [degree]:                                   90.000
 CELL_REF| Angle (a,c), beta  [degree]:                                   90.000
 CELL_REF| Angle (a,b), gamma [degree]:                                   60.000
 CELL_REF| Requested initial symmetry:                                 TRICLINIC
 CELL_REF| Numerically orthorhombic:                                          NO

 *******************************************************************************
 *******************************************************************************
 **                                                                           **
 **     #####                         ##              ##                      **
 **    ##   ##            ##          ##              ##                      **
 **   ##     ##                       ##            ######                    **
 **   ##     ##  ##   ##  ##   #####  ##  ##   ####   ##    #####    #####    **
 **   ##     ##  ##   ##  ##  ##      ## ##   ##      ##   ##   ##  ##   ##   **
 **   ##  ## ##  ##   ##  ##  ##      ####     ###    ##   ######   ######    **
 **    ##  ###   ##   ##  ##  ##      ## ##      ##   ##   ##       ##        **
 **     #######   #####   ##   #####  ##  ##  ####    ##    #####   ##        **
 **           ##                                                    ##        **
 **                                                                           **
 **                                                ... make the atoms dance   **
 **                                                                           **
 **            Copyright (C) by CP2K developers group (2000 - 2018)           **
 **                                                                           **
 *******************************************************************************

 DFT| Spin unrestricted (spin-polarized) Kohn-Sham calculation               UKS
 DFT| Multiplicity                                                             1
 DFT| Number of spin states                                                    2
 DFT| Charge                                                                   0
 DFT| Self-interaction correction (SIC)                                       NO
 DFT| Cutoffs: density                                              1.000000E-10
 DFT|          gradient                                             1.000000E-10
 DFT|          tau                                                  1.000000E-10
 DFT|          cutoff_smoothing_range                               0.000000E+00
 DFT| XC density smoothing                                                  NONE
 DFT| XC derivatives                                              SPLINE2_SMOOTH
 FUNCTIONAL| ROUTINE=NEW
 FUNCTIONAL| BECKE88:
 FUNCTIONAL| A. Becke, Phys. Rev. A 38, 3098 (1988) {LSD version}               
 FUNCTIONAL| LYP:
 FUNCTIONAL| C. Lee, W. Yang, R.G. Parr, Phys. Rev. B, 37, 785 (1988) {LSD versi
 FUNCTIONAL| on}                                                                
 vdW POTENTIAL|                                                   Pair Potential
 vdW POTENTIAL|          DFT-D3 (Version 3.1)
 vdW POTENTIAL|          Potential Form: S. Grimme et al, JCP 132: 154104 (2010)
 vdW POTENTIAL|          Zero Damping
 vdW POTENTIAL|          Cutoff Radius [Bohr]:                             20.00
 vdW POTENTIAL|          s6 Scaling Factor:                               1.0000
 vdW POTENTIAL|          sr6 Scaling Factor:                              1.0940
 vdW POTENTIAL|          s8 Scaling Factor:                               1.6820
 vdW POTENTIAL|          Cutoff for CN calculation:                   0.1000E-05

 QS| Method:                                                                 GPW
 QS| Density plane wave grid type                        NON-SPHERICAL FULLSPACE
 QS| Number of grid levels:                                                    4
 QS| Density cutoff [a.u.]:                                                150.0
 QS| Multi grid cutoff [a.u.]: 1) grid level                               150.0
 QS|                           2) grid level                                50.0
 QS|                           3) grid level                                16.7
 QS|                           4) grid level                                 5.6
 QS| Grid level progression factor:                                          3.0
 QS| Relative density cutoff [a.u.]:                                        20.0
 QS| Consistent realspace mapping and integration 
 QS| Interaction thresholds: eps_pgf_orb:                                1.0E-06
 QS|                         eps_filter_matrix:                          0.0E+00
 QS|                         eps_core_charge:                            1.0E-14
 QS|                         eps_rho_gspace:                             1.0E-12
 QS|                         eps_rho_rspace:                             1.0E-12
 QS|                         eps_gvg_rspace:                             1.0E-06
 QS|                         eps_ppl:                                    1.0E-02
 QS|                         eps_ppnl:                                   1.0E-08


 ATOMIC KIND INFORMATION

  1. Atomic kind: C                                     Number of atoms:     112

     Orbital Basis Set                                        DZVP-MOLOPT-SR-GTH

       Number of orbital shell sets:                                           1
       Number of orbital shells:                                               5
       Number of primitive Cartesian functions:                                5
       Number of Cartesian basis functions:                                   14
       Number of spherical basis functions:                                   13
       Norm type:                                                              2

       Normalised Cartesian orbitals:

                        Set   Shell   Orbital            Exponent    Coefficient

                          1       1    2s                5.605331       0.322515
                                                         2.113016       0.213043
                                                         0.769911      -0.209686
                                                         0.348157      -0.219794
                                                         0.128212      -0.022789

                          1       2    3s                5.605331       0.552234
                                                         2.113016       0.082072
                                                         0.769911       0.007843
                                                         0.348157       0.136893
                                                         0.128212       0.074283

                          1       3    3px               5.605331      -0.703879
                                                         2.113016      -0.642521
                                                         0.769911      -0.374851
                                                         0.348157      -0.139743
                                                         0.128212      -0.027849
                          1       3    3py               5.605331      -0.703879
                                                         2.113016      -0.642521
                                                         0.769911      -0.374851
                                                         0.348157      -0.139743
                                                         0.128212      -0.027849
                          1       3    3pz               5.605331      -0.703879
                                                         2.113016      -0.642521
                                                         0.769911      -0.374851
                                                         0.348157      -0.139743
                                                         0.128212      -0.027849

                          1       4    4px               5.605331      -0.480376
                                                         2.113016      -0.552894
                                                         0.769911      -0.316145
                                                         0.348157       0.210505
                                                         0.128212       0.076095
                          1       4    4py               5.605331      -0.480376
                                                         2.113016      -0.552894
                                                         0.769911      -0.316145
                                                         0.348157       0.210505
                                                         0.128212       0.076095
                          1       4    4pz               5.605331      -0.480376
                                                         2.113016      -0.552894
                                                         0.769911      -0.316145
                                                         0.348157       0.210505
                                                         0.128212       0.076095

                          1       5    4dx2              5.605331       0.640026
                                                         2.113016       0.274300
                                                         0.769911       0.446711
                                                         0.348157       0.028674
                                                         0.128212       0.029790
                          1       5    4dxy              5.605331       1.108557
                                                         2.113016       0.475102
                                                         0.769911       0.773726
                                                         0.348157       0.049666
                                                         0.128212       0.051599
                          1       5    4dxz              5.605331       1.108557
                                                         2.113016       0.475102
                                                         0.769911       0.773726
                                                         0.348157       0.049666
                                                         0.128212       0.051599
                          1       5    4dy2              5.605331       0.640026
                                                         2.113016       0.274300
                                                         0.769911       0.446711
                                                         0.348157       0.028674
                                                         0.128212       0.029790
                          1       5    4dyz              5.605331       1.108557
                                                         2.113016       0.475102
                                                         0.769911       0.773726
                                                         0.348157       0.049666
                                                         0.128212       0.051599
                          1       5    4dz2              5.605331       0.640026
                                                         2.113016       0.274300
                                                         0.769911       0.446711
                                                         0.348157       0.028674
                                                         0.128212       0.029790

     GTH Potential information for                                    GTH-PBE-q4

       Description:                       Goedecker-Teter-Hutter pseudopotential
                                           Goedecker et al., PRB 54, 1703 (1996)
                                          Hartwigsen et al., PRB 58, 3641 (1998)
                                                      Krack, TCA 114, 145 (2005)

       Gaussian exponent of the core charge distribution:               4.364419
       Electronic configuration (s p d ...):                               2   2

       Parameters of the local part of the GTH pseudopotential:

                          rloc        C1          C2          C3          C4
                        0.338471   -8.803674    1.339211

       Parameters of the non-local part of the GTH pseudopotential:

                   l      r(l)      h(i,j,l)

                   0    0.302576    9.622487
                   1    0.291507


 MOLECULE KIND INFORMATION


 All atoms are their own molecule, skipping detailed information


 TOTAL NUMBERS AND MAXIMUM NUMBERS

  Total number of            - Atomic kinds:                                   1
                             - Atoms:                                        112
                             - Shell sets:                                   112
                             - Shells:                                       560
                             - Primitive Cartesian functions:                560
                             - Cartesian basis functions:                   1568
                             - Spherical basis functions:                   1456

  Maximum angular momentum of- Orbital basis functions:                        2
                             - Local part of the GTH pseudopotential:          2
                             - Non-local part of the GTH pseudopotential:      0


 MODULE QUICKSTEP:  ATOMIC COORDINATES IN angstrom

  Atom  Kind  Element       X           Y           Z          Z(eff)       Mass

       1     1 C    6    8.618622   14.930295    0.048766      4.00      12.0107
       2     1 C    6    9.847457   15.649491    0.049128      4.00      12.0107
       3     1 C    6   11.074408   14.931098    0.055596      4.00      12.0107
       4     1 C    6   12.304861   15.648276    0.038662      4.00      12.0107
       5     1 C    6   13.531940   14.929137    0.021104      4.00      12.0107
       6     1 C    6   14.761373   15.645406   -0.023206      4.00      12.0107
       7     1 C    6   15.986821   14.924276   -0.059579      4.00      12.0107
       8     1 C    6   17.216202   15.640764   -0.092125      4.00      12.0107
       9     1 C    6   18.443052   14.923229   -0.126706      4.00      12.0107
      10     1 C    6   19.672361   15.642873   -0.123398      4.00      12.0107
      11     1 C    6   20.899040   14.923152   -0.126566      4.00      12.0107
      12     1 C    6   22.128279   15.640881   -0.092418      4.00      12.0107
      13     1 C    6   23.356267   14.924920   -0.067302      4.00      12.0107
      14     1 C    6   24.584863   15.647175   -0.035886      4.00      12.0107
      15     1 C    6   25.814564   14.934347   -0.000033      4.00      12.0107
      16     1 C    6   27.041732   15.651166    0.025030      4.00      12.0107
      17     1 C    6   25.800012   13.505351    0.004673      4.00      12.0107
      18     1 C    6   23.345616   13.499792   -0.078368      4.00      12.0107
      19     1 C    6   20.889713   13.498254   -0.141339      4.00      12.0107
      20     1 C    6   18.433880   13.498074   -0.138834      4.00      12.0107
      21     1 C    6   15.978309   13.499071   -0.065920      4.00      12.0107
      22     1 C    6   14.749237   12.781313   -0.024647      4.00      12.0107
      23     1 C    6   13.523638   13.503612    0.023128      4.00      12.0107
      24     1 C    6   12.292176   12.787908    0.047213      4.00      12.0107
      25     1 C    6   11.062734   13.505710    0.060867      4.00      12.0107
      26     1 C    6    9.832214   12.785207    0.062507      4.00      12.0107
      27     1 C    6    8.605404   13.504586    0.056588      4.00      12.0107
      28     1 C    6    7.376855   12.783747    0.039222      4.00      12.0107
      29     1 C    6   24.572584   12.782384   -0.039487      4.00      12.0107
      30     1 C    6   22.117093   12.780067   -0.122739      4.00      12.0107
      31     1 C    6   19.660744   12.778804   -0.151555      4.00      12.0107
      32     1 C    6   17.204677   12.779471   -0.114317      4.00      12.0107
      33     1 C    6   24.561967   11.355910   -0.044575      4.00      12.0107
      34     1 C    6   23.333094   10.635747   -0.091336      4.00      12.0107
      35     1 C    6   22.107116   11.354783   -0.127192      4.00      12.0107
      36     1 C    6   20.878218   10.634998   -0.141170      4.00      12.0107
      37     1 C    6   19.651234   11.353727   -0.149443      4.00      12.0107
      38     1 C    6   18.422065   10.634571   -0.135709      4.00      12.0107
      39     1 C    6   17.195609   11.354255   -0.115223      4.00      12.0107
      40     1 C    6   15.966870   10.635201   -0.071791      4.00      12.0107
      41     1 C    6   14.740488   11.355503   -0.032239      4.00      12.0107
      42     1 C    6   13.510327   10.635109   -0.000310      4.00      12.0107
      43     1 C    6   12.282684   11.358243    0.037108      4.00      12.0107
      44     1 C    6   11.047715   10.633891    0.045681      4.00      12.0107
      45     1 C    6    9.818682   11.357717    0.056935      4.00      12.0107
      46     1 C    6    8.591343   10.635221    0.048025      4.00      12.0107
      47     1 C    6    7.366184   11.356908    0.036618      4.00      12.0107
      48     1 C    6    6.139733   10.635573   -0.001039      4.00      12.0107
      49     1 C    6    6.129549    9.209756   -0.017332      4.00      12.0107
      50     1 C    6    7.355661    8.489080   -0.003621      4.00      12.0107
      51     1 C    6    8.583772    9.208489    0.026135      4.00      12.0107
      52     1 C    6    9.810133    8.486549    0.015881      4.00      12.0107
      53     1 C    6   11.040535    9.203645    0.023457      4.00      12.0107
      54     1 C    6   12.270407    8.485604   -0.007317      4.00      12.0107
      55     1 C    6   13.499852    9.207115   -0.017832      4.00      12.0107
      56     1 C    6   14.728088    8.488817   -0.041618      4.00      12.0107
      57     1 C    6   15.956386    9.209471   -0.064016      4.00      12.0107
      58     1 C    6   17.183232    8.490016   -0.082085      4.00      12.0107
      59     1 C    6   18.411727    9.209465   -0.116246      4.00      12.0107
      60     1 C    6   19.639023    8.490660   -0.110927      4.00      12.0107
      61     1 C    6   20.867880    9.209910   -0.122166      4.00      12.0107
      62     1 C    6   22.094488    8.490672   -0.091891      4.00      12.0107
      63     1 C    6   23.322876    9.210310   -0.077340      4.00      12.0107
      64     1 C    6   22.086350    7.065983   -0.066110      4.00      12.0107
      65     1 C    6   20.857594    6.347198   -0.060293      4.00      12.0107
      66     1 C    6   19.630516    7.066285   -0.075569      4.00      12.0107
      67     1 C    6   18.401710    6.346796   -0.059779      4.00      12.0107
      68     1 C    6   17.174242    7.065058   -0.062425      4.00      12.0107
      69     1 C    6   15.945606    6.344959   -0.050076      4.00      12.0107
      70     1 C    6   14.718233    7.063199   -0.044862      4.00      12.0107
      71     1 C    6   13.489586    6.342953   -0.041714      4.00      12.0107
      72     1 C    6   12.261744    7.060370   -0.029382      4.00      12.0107
      73     1 C    6   11.031960    6.342200   -0.033879      4.00      12.0107
      74     1 C    6    9.804548    7.061361   -0.019871      4.00      12.0107
      75     1 C    6    8.575542    6.343128   -0.033368      4.00      12.0107
      76     1 C    6    7.349168    7.063510   -0.028644      4.00      12.0107
      77     1 C    6    6.120422    6.344935   -0.041557      4.00      12.0107
      78     1 C    6    4.893864    7.065126   -0.046994      4.00      12.0107
      79     1 C    6    4.901413    8.490732   -0.047368      4.00      12.0107
      80     1 C    6    3.665081    6.346341   -0.051180      4.00      12.0107
      81     1 C    6    3.656018    4.921094   -0.038154      4.00      12.0107
      82     1 C    6    4.882807    4.201387   -0.035493      4.00      12.0107
      83     1 C    6    6.111957    4.919388   -0.043732      4.00      12.0107
      84     1 C    6    7.338536    4.199259   -0.047632      4.00      12.0107
      85     1 C    6    8.567378    4.917661   -0.047137      4.00      12.0107
[...]
     72       C      1       4.000    2.000   2.000           -0.000     -0.000
     73       C      1       4.000    2.001   2.001            0.000     -0.002
     74       C      1       4.000    2.001   2.001           -0.000     -0.002
     75       C      1       4.000    2.002   2.002           -0.000     -0.003
     76       C      1       4.000    2.001   2.001           -0.000     -0.002
     77       C      1       4.000    2.001   2.001           -0.000     -0.003
     78       C      1       4.000    2.001   2.001           -0.000     -0.001
     79       C      1       4.000    2.001   2.001           -0.000     -0.003
     80       C      1       4.000    2.001   2.001           -0.000     -0.003
     81       C      1       4.000    2.001   2.001           -0.000     -0.002
     82       C      1       4.000    2.001   2.001            0.000     -0.002
     83       C      1       4.000    2.001   2.001           -0.000     -0.002
     84       C      1       4.000    2.001   2.001           -0.000     -0.002
     85       C      1       4.000    2.001   2.001           -0.000     -0.002
     86       C      1       4.000    2.001   2.001           -0.000     -0.002
     87       C      1       4.000    2.002   2.002           -0.000     -0.003
     88       C      1       4.000    2.001   2.001           -0.000     -0.002
     89       C      1       4.000    2.002   2.002           -0.000     -0.003
     90       C      1       4.000    2.001   2.001            0.000     -0.003
     91       C      1       4.000    2.001   2.001           -0.000     -0.002
     92       C      1       4.000    2.001   2.001           -0.000     -0.003
     93       C      1       4.000    2.001   2.001           -0.000     -0.002
     94       C      1       4.000    2.001   2.001           -0.000     -0.002
     95       C      1       4.000    2.001   2.001           -0.000     -0.002
     96       C      1       4.000    2.001   2.001           -0.000     -0.002
     97       C      1       4.000    2.001   2.001           -0.000     -0.002
     98       C      1       4.000    2.001   2.001           -0.000     -0.003
     99       C      1       4.000    2.001   2.001           -0.000     -0.002
    100       C      1       4.000    2.001   2.001           -0.000     -0.002
    101       C      1       4.000    2.001   2.001           -0.000     -0.002
    102       C      1       4.000    2.001   2.001           -0.000     -0.002
    103       C      1       4.000    2.001   2.001           -0.000     -0.002
    104       C      1       4.000    2.001   2.001           -0.000     -0.002
    105       C      1       4.000    2.001   2.001           -0.000     -0.002
    106       C      1       4.000    2.001   2.001            0.000     -0.002
    107       C      1       4.000    2.001   2.001           -0.000     -0.002
    108       C      1       4.000    2.001   2.001           -0.000     -0.002
    109       C      1       4.000    2.002   2.002            0.000     -0.003
    110       C      1       4.000    2.001   2.001           -0.000     -0.002
    111       C      1       4.000    2.001   2.001           -0.000     -0.002
    112       C      1       4.000    2.002   2.002           -0.000     -0.003
    113       Na     2       9.000    4.726   4.726           -0.000     -0.452

  Total Charge                                                            0.015
 !-----------------------------------------------------------------------------!

 *** WARNING in qs_loc_utils.F:1387 :: User requested the calculation of ***
 *** the localized wavefunction but the section LOCALIZE was not         ***
 *** specified. Localization will not be performed!                      ***


 -------------------------------------------------------------------------------
 ----                             MULTIGRID INFO                            ----
 -------------------------------------------------------------------------------
 count for grid        1:         163779          cutoff [a.u.]          150.00
 count for grid        2:          77656          cutoff [a.u.]           50.00
 count for grid        3:          42645          cutoff [a.u.]           16.67
 count for grid        4:          17123          cutoff [a.u.]            5.56
 total gridlevel count  :         301203

 -------------------------------------------------------------------------------
 -                                                                             -
 -                                 BSSE RESULTS                                -
 -                                                                             -
 -                 CP-corrected Total energy:     -681.675787                  -
 -                                                                             -
 -                       1-body contribution:     -634.503638                  -
 -                       1-body contribution:      -47.159151                  -
 -                                                                             -
 -                       2-body contribution:       -0.012998                  -
 -                 BSSE-free interaction energy:       -0.012998               -
 -------------------------------------------------------------------------------

 -------------------------------------------------------------------------------
 -                                                                             -
 -                                DBCSR STATISTICS                             -
 -                                                                             -
 -------------------------------------------------------------------------------
 COUNTER                                    TOTAL       BLAS       SMM       ACC
 flops     9 x     9 x     8               136080       0.0%    100.0%      0.0%
 flops     9 x     9 x     9               505926       0.0%    100.0%      0.0%
 flops     9 x     9 x    68              1894752       0.0%    100.0%      0.0%
 flops     9 x     9 x    72              2029536       0.0%    100.0%      0.0%
 flops     9 x     9 x    73              2057724       0.0%    100.0%      0.0%
 flops     9 x     9 x    32              3265920       0.0%    100.0%      0.0%
 flops     9 x     9 x    64              5391360       0.0%    100.0%      0.0%
 flops    13 x     9 x     8             11007360       0.0%    100.0%      0.0%
 flops     9 x    13 x     8             11007360       0.0%    100.0%      0.0%
 flops    13 x     9 x     9             12383280       0.0%    100.0%      0.0%
 flops     9 x    13 x     9             12383280       0.0%    100.0%      0.0%
 flops     9 x     9 x    96             16174080       0.0%    100.0%      0.0%
 flops    13 x     9 x    68            153264384       0.0%    100.0%      0.0%
 flops     9 x    13 x    68            153264384       0.0%    100.0%      0.0%
 flops    13 x     9 x    72            164166912       0.0%    100.0%      0.0%
 flops     9 x    13 x    72            164166912       0.0%    100.0%      0.0%
 flops    13 x     9 x    73            166447008       0.0%    100.0%      0.0%
 flops     9 x    13 x    73            166447008       0.0%    100.0%      0.0%
 flops    13 x     9 x    32            264176640       0.0%    100.0%      0.0%
 flops     9 x    13 x    32            264176640       0.0%    100.0%      0.0%
 flops    13 x     9 x    64            436101120       0.0%    100.0%      0.0%
 flops     9 x    13 x    64            436101120       0.0%    100.0%      0.0%
 flops    13 x     9 x    96           1308303360       0.0%    100.0%      0.0%
 flops     9 x    13 x    96           1308303360       0.0%    100.0%      0.0%
 flops    13 x    13 x     8           1796645760       0.0%    100.0%      0.0%
 flops    13 x    13 x     9           2021226480       0.0%    100.0%      0.0%
 flops    13 x    13 x    72          26795688192       0.0%    100.0%      0.0%
 flops    13 x    13 x    73          27167850528       0.0%    100.0%      0.0%
 flops    13 x    13 x    32          43119498240       0.0%    100.0%      0.0%
 flops    13 x    13 x    68          43923711104       0.0%    100.0%      0.0%
 flops    13 x    13 x    64          88976742400       0.0%    100.0%      0.0%
 flops    13 x    13 x    96         266930227200       0.0%    100.0%      0.0%
 flops inhomo. stacks                           0       0.0%      0.0%      0.0%
 flops total                       505.794745E+09       0.0%    100.0%      0.0%
 flops max/rank                     33.415612E+09       0.0%    100.0%      0.0%
 matmuls inhomo. stacks                         0       0.0%      0.0%      0.0%
 matmuls total                           22098522       0.0%    100.0%      0.0%
 number of processed stacks                 78642       0.0%    100.0%      0.0%
 average stack size                                     0.0     281.0       0.0
 marketing flops                   638.528389E+09
 -------------------------------------------------------------------------------
 # multiplications                           1102
 max memory usage/rank             870.858752E+06
 # max total images/rank                        1
 # max 3D layers                                1
 # MPI messages exchanged                  105792
 MPI messages size (bytes):
  total size                        16.445420E+09
  min size                           0.000000E+00
  max size                         286.464000E+03
  average size                     155.450500E+03
 MPI breakdown and total messages size (bytes):
             size <=      128               21780                        0
       128 < size <=     8192                1452                   940896
      8192 < size <=    32768                5040                125521200
     32768 < size <=   131072               15120               1417651200
    131072 < size <=  4194304               62400              14901317280
   4194304 < size <= 16777216                   0                        0
  16777216 < size                               0                        0
 -------------------------------------------------------------------------------

 MEMORY| Estimated peak process memory [MiB]                                 831

 -------------------------------------------------------------------------------
 ----                             MULTIGRID INFO                            ----
 -------------------------------------------------------------------------------
 count for grid        1:         148480          cutoff [a.u.]          150.00
 count for grid        2:          51840          cutoff [a.u.]           50.00
 count for grid        3:          26560          cutoff [a.u.]           16.67
 count for grid        4:           7360          cutoff [a.u.]            5.56
 total gridlevel count  :         234240

 -------------------------------------------------------------------------------
 -                                                                             -
 -                         MESSAGE PASSING PERFORMANCE                         -
 -                                                                             -
 -------------------------------------------------------------------------------

 ROUTINE             CALLS      AVE VOLUME [Bytes]
 MP_Group             1136
 MP_Bcast              974                 986679.
 MP_Allreduce        18218                    289.
 MP_Sync               266
 MP_Alltoall         44811                4701278.
 MP_SendRecv         13224                 331776.
 MP_ISendRecv        99630                 362400.
 MP_Wait            177100
 MP_comm_split         242
 MP_ISend            35504                1506681.
 MP_IRecv            35504                1502498.
 MP_Recv               424                 344380.
 MP_Memory           83116
 -------------------------------------------------------------------------------


 -------------------------------------------------------------------------------
 -                                                                             -
 -                           R E F E R E N C E S                               -
 -                                                                             -
 -------------------------------------------------------------------------------
 
 CP2K version 7.0 (Development Version), the CP2K developers group (2018).
 CP2K is freely available from https://www.cp2k.org/ .

 Schuett, Ole; Messmer, Peter; Hutter, Juerg; VandeVondele, Joost. 
 Electronic Structure Calculations on Graphics Processing Units, John Wiley & Sons, Ltd, 173-190 (2016). 
 GPU-Accelerated Sparse Matrix-Matrix Multiplication for Linear Scaling Density Functional Theory.
 http://dx.doi.org/10.1002/9781118670712.ch8


 Borstnik, U; VandeVondele, J; Weber, V; Hutter, J. 
 PARALLEL COMPUTING, 40 (5-6), 47-58 (2014). 
 Sparse matrix multiplication: The distributed block-compressed sparse
 row library.
 http://dx.doi.org/10.1016/j.parco.2014.03.012


 Hutter, J; Iannuzzi, M; Schiffmann, F; VandeVondele, J. 
 WILEY INTERDISCIPLINARY REVIEWS-COMPUTATIONAL MOLECULAR SCIENCE, 4 (1), 15-25 (2014). 
 CP2K: atomistic simulations of condensed matter systems.
 http://dx.doi.org/10.1002/wcms.1159


 Grimme, S; Ehrlich, S; Goerigk, L. 
 JOURNAL OF COMPUTATIONAL CHEMISTRY, 32, 1456 (2011). 
 Effect of the damping function in dispersion corrected density functional theory.
 http://dx.doi.org/10.1002/jcc.21759


 Grimme, S; Antony, J; Ehrlich, S; Krieg, H. 
 JOURNAL OF CHEMICAL PHYSICS, 132 (15), 154104 (2010). 
 A consistent and accurate ab initio parametrization of density
 functional dispersion correction (DFT-D) for the 94 elements H-Pu.
 http://dx.doi.org/10.1063/1.3382344


 VandeVondele, J; Hutter, J. 
 JOURNAL OF CHEMICAL PHYSICS, 127 (11), 114105 (2007). 
 Gaussian basis sets for accurate calculations on molecular systems in
 gas and condensed phases.
 http://dx.doi.org/10.1063/1.2770708


 Krack, M. 
 THEORETICAL CHEMISTRY ACCOUNTS, 114 (1-3), 145-152 (2005). 
 Pseudopotentials for H to Kr optimized for gradient-corrected
 exchange-correlation functionals.
 http://dx.doi.org/10.1007/s00214-005-0655-y


 VandeVondele, J; Krack, M; Mohamed, F; Parrinello, M; Chassaing, T;
 Hutter, J. COMPUTER PHYSICS COMMUNICATIONS, 167 (2), 103-128 (2005). 
 QUICKSTEP: Fast and accurate density functional calculations using a
 mixed Gaussian and plane waves approach.
 http://dx.doi.org/10.1016/j.cpc.2004.12.014


 Frigo, M; Johnson, SG. 
 PROCEEDINGS OF THE IEEE, 93 (2), 216-231 (2005). 
 The design and implementation of FFTW3.
 http://dx.doi.org/10.1109/JPROC.2004.840301


 Hartwigsen, C; Goedecker, S; Hutter, J. 
 PHYSICAL REVIEW B, 58 (7), 3641-3662 (1998). 
 Relativistic separable dual-space Gaussian pseudopotentials from H to Rn.
 http://dx.doi.org/10.1103/PhysRevB.58.3641


 Lippert, G; Hutter, J; Parrinello, M. 
 MOLECULAR PHYSICS, 92 (3), 477-487 (1997). 
 A hybrid Gaussian and plane wave density functional scheme.
 http://dx.doi.org/10.1080/002689797170220


 Goedecker, S; Teter, M; Hutter, J. 
 PHYSICAL REVIEW B, 54 (3), 1703-1710 (1996). 
 Separable dual-space Gaussian pseudopotentials.
 http://dx.doi.org/10.1103/PhysRevB.54.1703


 BECKE, AD. PHYSICAL REVIEW A, 38 (6), 3098-3100 (1988). 
 DENSITY-FUNCTIONAL EXCHANGE-ENERGY APPROXIMATION WITH CORRECT
 ASYMPTOTIC-BEHAVIOR.
 http://dx.doi.org/10.1103/PhysRevA.38.3098


 LEE, CT; YANG, WT; PARR, RG. 
 PHYSICAL REVIEW B, 37 (2), 785-789 (1988). 
 DEVELOPMENT OF THE COLLE-SALVETTI CORRELATION-ENERGY FORMULA INTO A
 FUNCTIONAL OF THE ELECTRON-DENSITY.
 http://dx.doi.org/10.1103/PhysRevB.37.785


 -------------------------------------------------------------------------------
 -                                                                             -
 -                                T I M I N G                                  -
 -                                                                             -
 -------------------------------------------------------------------------------
 SUBROUTINE                       CALLS  ASD         SELF TIME        TOTAL TIME
                                MAXIMUM       AVERAGE  MAXIMUM  AVERAGE  MAXIMUM
 CP2K                                 1  1.0    0.083    0.122 2279.949 2279.951
 qs_energies                          5  2.0    0.000    0.000 2277.862 2277.866
 scf_env_do_scf                       5  3.0    0.001    0.002 2270.279 2270.611
 scf_env_do_scf_inner_loop          551  4.0    0.026    0.050 2270.278 2270.609
 qs_ks_update_qs_env                551  5.0    0.005    0.006  954.874  954.914
 rebuild_ks_matrix                  551  6.0    0.002    0.002  954.436  954.474
 qs_ks_build_kohn_sham_matrix       551  7.0    0.074    0.079  954.434  954.473
 qs_rho_update_rho                  556  5.0    0.004    0.005  760.722  760.847
 calculate_rho_elec                1112  6.0  441.916  453.243  760.718  760.842
 sum_up_and_integrate               551  8.0    2.360    2.477  676.151  676.185
 integrate_v_rspace                1102  9.0  448.079  451.927  673.789  673.927
 pw_transfer                      12718  9.0    0.825    0.898  422.482  431.200
 fft_wrap_pw1pw2                  11616  9.9    0.096    0.106  416.784  425.488
 fft_wrap_pw1pw2_150               4974 10.2   29.417   30.309  387.870  397.013
 gspace_mixing                      546  5.0    2.305    2.386  345.436  345.438
 fft3d_ps                         11616 11.9  165.932  176.211  312.869  322.052
 density_rs2pw                     1112  7.0    0.061    0.072  296.998  305.611
 broyden_mixing                     546  6.0  218.318  221.186  233.916  235.750
 rs_pw_transfer                    8876  9.5    0.120    0.138  217.032  222.934
 potential_pw2rs                   1102 10.0    0.182    0.196  217.358  217.485
 qs_vxc_create                      551  8.0    0.012    0.013  210.719  212.622
 xc_vxc_pw_create                   551  9.0   15.897   17.432  210.706  212.610
 qs_scf_new_mos                     551  5.0    0.010    0.011  211.644  211.728
 eigensolver                       1102  6.0    0.066    0.084  199.752  199.810
 cp_fm_syevd                       1102  7.0    0.006    0.007  164.758  164.803
 cp_fm_syevd_base                  1102  8.0  164.592  164.663  164.592  164.663
 xc_rho_set_and_dset_create         551 10.0   19.919   21.046  142.676  146.874
 x_to_yz                           6061 13.3   58.469   61.568   85.882   89.789
 pw_nn_compose_r                   6612 10.5   60.689   62.267   78.151   87.383
 rs_pw_transfer_PW2RS_150          1112 12.0   49.616   51.397   81.357   85.498
 xc_functional_eval                1102 11.0    0.009    0.010   75.757   80.493
 rs_pw_transfer_RS2PW_150          1122  9.0   42.914   44.248   70.599   76.594
 yz_to_x                           5555 12.6   35.028   37.668   60.869   66.609
 mp_alltoall_z22v                 11616 13.9   53.254   62.106   53.254   62.106
 mp_waitany                       17872 11.5   48.420   57.997   48.420   57.997
 lyp_lsd_eval                       551 12.0   53.907   57.071   53.907   57.071
 mp_waitall_1                    159228 11.6   40.801   47.689   40.801   47.689
 -------------------------------------------------------------------------------

 The number of warnings for this run is : 7
 
 -------------------------------------------------------------------------------
  **** **** ******  **  PROGRAM ENDED AT                 2024-08-06 15:43:33.474
 ***** ** ***  *** **   PROGRAM RAN ON                                sebnode048
 **    ****   ******    PROGRAM RAN BY                                    luehrs
 ***** **    ** ** **   PROGRAM PROCESS ID                                291870
  **** **  *******  **  PROGRAM STOPPED IN /home/luehrs/PhD/Sodium_batteries/Sod
                                           ium-graphene-surface/Zig-Zag_2
