     113
 i =       41, E =      -681.6101492265
  C         8.6216663321       14.9341363389        0.0504287289
  C         9.8506956311       15.6538004158        0.0483941195
  C        11.0778904759       14.9355347928        0.0484932903
  C        12.3076715248       15.6542834178        0.0252621066
  C        13.5351076361       14.9359936088        0.0006131201
  C        14.7645269579       15.6541324437       -0.0294776190
  C        15.9915422323       14.9355623505       -0.0487777025
  C        17.2209220847       15.6539539808       -0.0624546802
  C        18.4476995300       14.9358567994       -0.0937100893
  C        19.6773050560       15.6533564296       -0.1093442873
  C        20.9036627622       14.9336094856       -0.1307775552
  C        22.1328152248       15.6532543033       -0.1132204684
  C        23.3595328741       14.9352114152       -0.0923196015
  C        24.5883108833       15.6532980405       -0.0458606626
  C        25.8149525380       14.9352308880       -0.0005784442
  C        27.0433784420       15.6535018605        0.0286127471
  C        25.8021124488       13.5080102499       -0.0033262201
  C        23.3482886223       13.5080119169       -0.0982578231
  C        20.8937910495       13.5077738755       -0.1435910430
  C        18.4379455237       13.5099446456       -0.1167314373
  C        15.9823817855       13.5105759979       -0.0571822101
  C        14.7525037767       12.7929711488       -0.0317329047
  C        13.5243708129       13.5106986390        0.0044130797
  C        12.2941790325       12.7928828987        0.0341428544
  C        11.0664136908       13.5104195681        0.0541161789
  C         9.8371539499       12.7901303144        0.0601317141
  C         8.6099161353       13.5086940708        0.0548344606
  C         7.3806760824       12.7886888945        0.0331404251
  C        24.5737937622       12.7871669670       -0.0523071315
  C        22.1203732044       12.7874676197       -0.1325876300
  C        19.6642642530       12.7892836595       -0.1421888008
  C        17.2089031583       12.7910158167       -0.0948341023
  C        24.5629994580       11.3602892082       -0.0542722261
  C        23.3338627785       10.6371385565       -0.0923559488
  C        22.1102671646       11.3609477019       -0.1290577835
  C        20.8815484578       10.6424961206       -0.1401321287
  C        19.6556939786       11.3632921951       -0.1439524795
  C        18.4273667819       10.6441271467       -0.1261553668
  C        17.2019237369       11.3656066106       -0.1010006017
  C        15.9730659962       10.6463268460       -0.0695112392
  C        14.7459471231       11.3678089725       -0.0418815356
  C        13.5134759142       10.6504408232       -0.0229418163
  C        12.2831822901       11.3677527851        0.0221461611
  C        11.0534865564       10.6454950960        0.0364682827
  C         9.8260725626       11.3643823858        0.0537978093
  C         8.5972579443       10.6434611447        0.0406276040
  C         7.3705351342       11.3629592626        0.0255152324
  C         6.1423420078       10.6422779039       -0.0185658936
  C         6.1324510912        9.2167979634       -0.0295110862
  C         7.3587704950        8.4974288990       -0.0138908510
  C         8.5865443066        9.2176609425        0.0187837005
  C         9.8128630880        8.4974421443        0.0098517649
  C        11.0408245506        9.2186986403        0.0131012881
  C        12.2685924315        8.4962478061       -0.0231564428
  C        13.5030288623        9.2192078907       -0.0413399519
  C        14.7356324410        8.4965162122       -0.0517257934
  C        15.9649131450        9.2195425827       -0.0639032562
  C        17.1902728013        8.4977356311       -0.0755919294
  C        18.4177597673        9.2182394011       -0.1102165491
  C        19.6434662964        8.4974154269       -0.1098712228
  C        20.8716286000        9.2166821990       -0.1216139266
  C        22.0968746403        8.4954730973       -0.0926752670
  C        23.3251471835        9.2138793595       -0.0788384022
  C        22.0890852724        7.0712360223       -0.0677726221
  C        20.8609476762        6.3523698444       -0.0615665919
  C        19.6346877941        7.0724634221       -0.0760096874
  C        18.4066167094        6.3526670924       -0.0583854681
  C        17.1799896970        7.0720628261       -0.0592976133
  C        15.9518547082        6.3510562932       -0.0481845939
  C        14.7238749111        7.0687781145       -0.0483519522
  C        13.4927442759        6.3503617908       -0.0454054905
  C        12.2634192124        7.0686067861       -0.0362295878
  C        11.0335897205        6.3512423388       -0.0340505787
  C         9.8070062177        7.0720877247       -0.0210791539
  C         8.5786025935        6.3527632731       -0.0331772956
  C         7.3517290412        7.0722905811       -0.0323065493
  C         6.1234920920        6.3527460477       -0.0438494323
  C         4.8966268937        7.0716913871       -0.0497909742
  C         4.9046533036        8.4965252274       -0.0524517778
  C         3.6681301157        6.3524043752       -0.0526644098
  C         3.6587823636        4.9274847751       -0.0405459782
  C         4.8857995589        4.2086280737       -0.0387314259
  C         6.1147643022        4.9275901801       -0.0448471017
  C         7.3416421426        4.2085901057       -0.0453873613
  C         8.5706066150        4.9272940922       -0.0434517274
  C         9.7972597088        4.2077335383       -0.0479734938
  C        11.0263239926        4.9259586224       -0.0457929308
  C        12.2536981428        4.2074064637       -0.0535837558
  C        13.4835964944        4.9251628358       -0.0488461217
  C        14.7112932748        4.2072147968       -0.0498635999
  C        15.9406568877        4.9258551561       -0.0449879613
  C        17.1676542414        4.2075847952       -0.0376117706
  C        18.3960494600        4.9273018314       -0.0408455221
  C        19.6226197617        4.2082413811       -0.0273787443
  C        20.8511201678        4.9274121684       -0.0388303652
  C        19.6130708278        2.7834854290        0.0061046860
  C        18.3848221495        2.0642747349        0.0078542027
  C        17.1578995026        2.7826527331       -0.0244151214
  C        15.9292011627        2.0638622036       -0.0440586582
  C        14.7020923920        2.7823783974       -0.0601584127
  C        13.4730913194        2.0639493577       -0.0840790220
  C        12.2457948340        2.7825623426       -0.0732286775
  C        11.0169422802        2.0640775419       -0.0802896029
  C         9.7896714932        2.7827209757       -0.0591671083
  C         8.5604965742        2.0645627602       -0.0539462881
  C         6.1044128956        2.0648413338       -0.0345281652
  C         7.3335036433        2.7835142374       -0.0453509335
  C         4.8771944547        2.7836614428       -0.0248593604
  C         3.6483264295        2.0649792292        0.0046382764
  C         2.4207766163        2.7836213996        0.0042088581
  C         2.4299191322        4.2084118496       -0.0276420526
  C         1.1920875512        2.0646172536        0.0257037944
 Na        13.5153957613        9.1283148267        2.5463108892
