 DBCSR| CPU Multiplication driver                                           BLAS (U)
 DBCSR| Multrec recursion limit                                              512 (U)
 DBCSR| Multiplication stack size                                           1000 (D)
 DBCSR| Maximum elements for images                                    UNLIMITED (U)
 DBCSR| Multiplicative factor virtual images                                   1 (U)
 DBCSR| Use multiplication densification                                       T (D)
 DBCSR| Multiplication size stacks                                             3 (U)
 DBCSR| Use memory pool for CPU allocation                                     F (U)
 DBCSR| Number of 3D layers                                               SINGLE (U)
 DBCSR| Use MPI memory allocation                                              F (U)
 DBCSR| Use RMA algorithm                                                      F (U)
 DBCSR| Use Communication thread                                               T (U)
 DBCSR| Communication thread load                                             87 (D)
 DBCSR| MPI: My process id                                                     0
 DBCSR| MPI: Number of processes                                              16
 DBCSR| OMP: Current number of threads                                         1
 DBCSR| OMP: Max number of threads                                             1
 DBCSR| Split modifier for TAS multiplication algorithm                  1.0E+00 (U)


  **** **** ******  **  PROGRAM STARTED AT               2025-06-03 16:31:23.391
 ***** ** ***  *** **   PROGRAM STARTED ON                            sebnode045
 **    ****   ******    PROGRAM STARTED BY                                luehrs
 ***** **    ** ** **   PROGRAM PROCESS ID                               1307960
  **** **  *******  **  PROGRAM STARTED IN /home/luehrs/PhD/Sodium_batteries/Sod
                                           ium-graphene-interlayer/AA_Interlayer
                                           /Zig_Zag_3

 CP2K| version string:                                       CP2K version 2023.1
 CP2K| source code revision number:                                  git:b888bd8
 CP2K| cp2kflags: omp libint fftw3 libxc elpa parallel scalapack spglib         
 CP2K| is freely available from                            https://www.cp2k.org/
 CP2K| Program compiled at                          Tue Jan 10 19:52:03 UTC 2023
 CP2K| Program compiled on                                            x86-ubc-01
 CP2K| Program compiled for                                Linux-x86_64-gfortran
 CP2K| Data directory path                                       /usr/share/cp2k
 CP2K| Input file name                                         input.zig-zag.inp

 GLOBAL| Force Environment number                                              1
 GLOBAL| Basis set file name                                      ./BASIS_MOLOPT
 GLOBAL| Potential file name                                    ./GTH_POTENTIALS
 GLOBAL| MM Potential file name                                     MM_POTENTIAL
 GLOBAL| Coordinate file name           graphene_no_hydrogen_zig-zag_3.7_relaxed
 GLOBAL| Method name                                                        CP2K
 GLOBAL| Project name                           graphene_zig_zag_sodium_BSSE_PBE
 GLOBAL| Run type                                                           BSSE
 GLOBAL| FFT library                                                       FFTW3
 GLOBAL| Diagonalization library                                            ELPA
 GLOBAL| DGEMM library                                                      BLAS
 GLOBAL| Minimum number of eigenvectors for ELPA usage                        16
 GLOBAL| Orthonormality check for eigenvectors                          DISABLED
 GLOBAL| Matrix multiplication library                                 ScaLAPACK
 GLOBAL| All-to-all communication in single precision                          F
 GLOBAL| FFTs using library dependent lengths                                  F
 GLOBAL| Grid backend                                                       AUTO
 GLOBAL| Global print level                                               MEDIUM
 GLOBAL| MPI I/O enabled                                                       T
 GLOBAL| Total number of message passing processes                            16
 GLOBAL| Number of threads for this process                                    1
 GLOBAL| This output is from process                                           0
 GLOBAL| Stack size for threads created by OpenMP (OMP_STACKSIZE)        default
 GLOBAL| CPU model name                Intel(R) Xeon(R) CPU E5-2630 v3 @ 2.40GHz

 MEMORY| system memory details [Kb]
 MEMORY|                        rank 0           min           max       average
 MEMORY| MemTotal             65834000      65834000      65834000      65834000
 MEMORY| MemFree              61866480      61866480      61866480      61866480
 MEMORY| Buffers                191488        191488        191488        191488
 MEMORY| Cached                1707172       1707172       1707172       1707172
 MEMORY| Slab                   259876        259876        259876        259876
 MEMORY| SReclaimable           142160        142160        142160        142160
 MEMORY| MemLikelyFree        63907300      63907300      63907300      63907300


 *** Fundamental physical constants (SI units) ***

 *** Literature: B. J. Mohr and B. N. Taylor,
 ***             CODATA recommended values of the fundamental physical
 ***             constants: 2006, Web Version 5.1
 ***             http://physics.nist.gov/constants

 Speed of light in vacuum [m/s]                             2.99792458000000E+08
 Magnetic constant or permeability of vacuum [N/A**2]       1.25663706143592E-06
 Electric constant or permittivity of vacuum [F/m]          8.85418781762039E-12
 Planck constant (h) [J*s]                                  6.62606896000000E-34
 Planck constant (h-bar) [J*s]                              1.05457162825177E-34
 Elementary charge [C]                                      1.60217648700000E-19
 Electron mass [kg]                                         9.10938215000000E-31
 Electron g factor [ ]                                     -2.00231930436220E+00
 Proton mass [kg]                                           1.67262163700000E-27
 Fine-structure constant                                    7.29735253760000E-03
 Rydberg constant [1/m]                                     1.09737315685270E+07
 Avogadro constant [1/mol]                                  6.02214179000000E+23
 Boltzmann constant [J/K]                                   1.38065040000000E-23
 Atomic mass unit [kg]                                      1.66053878200000E-27
 Bohr radius [m]                                            5.29177208590000E-11

 *** Conversion factors ***

 [u] -> [a.u.]                                              1.82288848426455E+03
 [Angstrom] -> [Bohr] = [a.u.]                              1.88972613288564E+00
 [a.u.] = [Bohr] -> [Angstrom]                              5.29177208590000E-01
 [a.u.] -> [s]                                              2.41888432650478E-17
 [a.u.] -> [fs]                                             2.41888432650478E-02
 [a.u.] -> [J]                                              4.35974393937059E-18
 [a.u.] -> [N]                                              8.23872205491840E-08
 [a.u.] -> [K]                                              3.15774647902944E+05
 [a.u.] -> [kJ/mol]                                         2.62549961709828E+03
 [a.u.] -> [kcal/mol]                                       6.27509468713739E+02
 [a.u.] -> [Pa]                                             2.94210107994716E+13
 [a.u.] -> [bar]                                            2.94210107994716E+08
 [a.u.] -> [atm]                                            2.90362800883016E+08
 [a.u.] -> [eV]                                             2.72113838565563E+01
 [a.u.] -> [Hz]                                             6.57968392072181E+15
 [a.u.] -> [1/cm] (wave numbers)                            2.19474631370540E+05
 [a.u./Bohr**2] -> [1/cm]                                   5.14048714338585E+03
 

 CELL_TOP| Volume [angstrom^3]:                                      8850.018633
 CELL_TOP| Vector a [angstrom    19.648     0.000     0.000   |a| =    19.648000
 CELL_TOP| Vector b [angstrom     8.669    15.014     0.000   |b| =    17.337000
 CELL_TOP| Vector c [angstrom     0.000     0.000    30.000   |c| =    30.000000
 CELL_TOP| Angle (b,c), alpha [degree]:                                90.000000
 CELL_TOP| Angle (a,c), beta  [degree]:                                90.000000
 CELL_TOP| Angle (a,b), gamma [degree]:                                60.000000
 CELL_TOP| Requested initial symmetry:                                 TRICLINIC
 CELL_TOP| Numerically orthorhombic:                                          NO
 CELL_TOP| Periodicity                                                       XYZ

 GENERATE|  Preliminary Number of Bonds generated:                             0
 GENERATE|  Achieved consistency in connectivity generation.

 CELL| Volume [angstrom^3]:                                          8850.018633
 CELL| Vector a [angstrom]:      19.648     0.000     0.000   |a| =    19.648000
 CELL| Vector b [angstrom]:       8.669    15.014     0.000   |b| =    17.337000
 CELL| Vector c [angstrom]:       0.000     0.000    30.000   |c| =    30.000000
 CELL| Angle (b,c), alpha [degree]:                                    90.000000
 CELL| Angle (a,c), beta  [degree]:                                    90.000000
 CELL| Angle (a,b), gamma [degree]:                                    60.000000
 CELL| Requested initial symmetry:                                     TRICLINIC
 CELL| Numerically orthorhombic:                                              NO
 CELL| Periodicity                                                           XYZ

 CELL_REF| Volume [angstrom^3]:                                      8850.018633
 CELL_REF| Vector a [angstrom    19.648     0.000     0.000   |a| =    19.648000
 CELL_REF| Vector b [angstrom     8.669    15.014     0.000   |b| =    17.337000
 CELL_REF| Vector c [angstrom     0.000     0.000    30.000   |c| =    30.000000
 CELL_REF| Angle (b,c), alpha [degree]:                                90.000000
 CELL_REF| Angle (a,c), beta  [degree]:                                90.000000
 CELL_REF| Angle (a,b), gamma [degree]:                                60.000000
 CELL_REF| Requested initial symmetry:                                 TRICLINIC
 CELL_REF| Numerically orthorhombic:                                          NO
 CELL_REF| Periodicity                                                       XYZ

 *******************************************************************************
 *******************************************************************************
 **                                                                           **
 **     #####                         ##              ##                      **
 **    ##   ##            ##          ##              ##                      **
 **   ##     ##                       ##            ######                    **
 **   ##     ##  ##   ##  ##   #####  ##  ##   ####   ##    #####    #####    **
 **   ##     ##  ##   ##  ##  ##      ## ##   ##      ##   ##   ##  ##   ##   **
 **   ##  ## ##  ##   ##  ##  ##      ####     ###    ##   ######   ######    **
 **    ##  ###   ##   ##  ##  ##      ## ##      ##   ##   ##       ##        **
 **     #######   #####   ##   #####  ##  ##  ####    ##    #####   ##        **
 **           ##                                                    ##        **
 **                                                                           **
 **                                                ... make the atoms dance   **
 **                                                                           **
 **            Copyright (C) by CP2K developers group (2000-2022)             **
 **                      J. Chem. Phys. 152, 194103 (2020)                    **
 **                                                                           **
 *******************************************************************************

 DFT| Spin restricted Kohn-Sham (RKS) calculation                            RKS
 DFT| Multiplicity                                                             1
 DFT| Number of spin states                                                    1
 DFT| Charge                                                                   1
 DFT| Self-interaction correction (SIC)                                       NO
 DFT| Cutoffs: density                                              1.000000E-10
 DFT|          gradient                                             1.000000E-10
 DFT|          tau                                                  1.000000E-10
 DFT|          cutoff_smoothing_range                               0.000000E+00
 DFT| XC density smoothing                                                  NONE
 DFT| XC derivatives                                              SPLINE2_SMOOTH

 FUNCTIONAL| PBE:
 FUNCTIONAL| J.P.Perdew, K.Burke, M.Ernzerhof, Phys. Rev. Letter, vol. 77, n 18,
 FUNCTIONAL|  pp. 3865-3868, (1996){spin unpolarized}                           

 vdW POTENTIAL|                                                   Pair Potential
 vdW POTENTIAL|          DFT-D3 (Version 3.1)
 vdW POTENTIAL|          Potential Form: S. Grimme et al, JCP 132: 154104 (2010)
 vdW POTENTIAL|          Zero Damping
 vdW POTENTIAL|          Cutoff Radius [Bohr]:                             20.00
 vdW POTENTIAL|          s6 Scaling Factor:                               1.0000
 vdW POTENTIAL|          sr6 Scaling Factor:                              1.2170
 vdW POTENTIAL|          s8 Scaling Factor:                               0.7220
 vdW POTENTIAL|          Cutoff for CN calculation:                   0.1000E-05

 QS| Method:                                                                 GPW
 QS| Density plane wave grid type                        NON-SPHERICAL FULLSPACE
 QS| Number of grid levels:                                                    4
 QS| Density cutoff [a.u.]:                                                150.0
 QS| Multi grid cutoff [a.u.]: 1) grid level                               150.0
 QS|                           2) grid level                                50.0
 QS|                           3) grid level                                16.7
 QS|                           4) grid level                                 5.6
 QS| Grid level progression factor:                                          3.0
 QS| Relative density cutoff [a.u.]:                                        20.0
 QS| Interaction thresholds: eps_pgf_orb:                                1.0E-06
 QS|                         eps_filter_matrix:                          0.0E+00
 QS|                         eps_core_charge:                            1.0E-14
 QS|                         eps_rho_gspace:                             1.0E-12
 QS|                         eps_rho_rspace:                             1.0E-12
 QS|                         eps_gvg_rspace:                             1.0E-06
 QS|                         eps_ppl:                                    1.0E-02
 QS|                         eps_ppnl:                                   1.0E-08


 ATOMIC KIND INFORMATION

  1. Atomic kind: C                                     Number of atoms:     224

     Orbital Basis Set                                        DZVP-MOLOPT-SR-GTH

       Number of orbital shell sets:                                           1
       Number of orbital shells:                                               5
       Number of primitive Cartesian functions:                                5
       Number of Cartesian basis functions:                                   14
       Number of spherical basis functions:                                   13
       Norm type:                                                              2

       Normalised Cartesian orbitals:

                        Set   Shell   Orbital            Exponent    Coefficient

                          1       1    2s                5.605331       0.322515
                                                         2.113016       0.213043
                                                         0.769911      -0.209686
                                                         0.348157      -0.219794
                                                         0.128212      -0.022789

                          1       2    3s                5.605331       0.552234
                                                         2.113016       0.082072
                                                         0.769911       0.007843
                                                         0.348157       0.136893
                                                         0.128212       0.074283

                          1       3    3px               5.605331      -0.703879
                                                         2.113016      -0.642521
                                                         0.769911      -0.374851
                                                         0.348157      -0.139743
                                                         0.128212      -0.027849
                          1       3    3py               5.605331      -0.703879
                                                         2.113016      -0.642521
                                                         0.769911      -0.374851
                                                         0.348157      -0.139743
                                                         0.128212      -0.027849
                          1       3    3pz               5.605331      -0.703879
                                                         2.113016      -0.642521
                                                         0.769911      -0.374851
                                                         0.348157      -0.139743
                                                         0.128212      -0.027849

                          1       4    4px               5.605331      -0.480376
                                                         2.113016      -0.552894
                                                         0.769911      -0.316145
                                                         0.348157       0.210505
                                                         0.128212       0.076095
                          1       4    4py               5.605331      -0.480376
                                                         2.113016      -0.552894
                                                         0.769911      -0.316145
                                                         0.348157       0.210505
                                                         0.128212       0.076095
                          1       4    4pz               5.605331      -0.480376
                                                         2.113016      -0.552894
                                                         0.769911      -0.316145
                                                         0.348157       0.210505
                                                         0.128212       0.076095

                          1       5    4dx2              5.605331       0.640026
                                                         2.113016       0.274300
                                                         0.769911       0.446711
                                                         0.348157       0.028674
                                                         0.128212       0.029790
                          1       5    4dxy              5.605331       1.108557
                                                         2.113016       0.475102
                                                         0.769911       0.773726
                                                         0.348157       0.049666
                                                         0.128212       0.051599
                          1       5    4dxz              5.605331       1.108557
                                                         2.113016       0.475102
                                                         0.769911       0.773726
                                                         0.348157       0.049666
                                                         0.128212       0.051599
                          1       5    4dy2              5.605331       0.640026
                                                         2.113016       0.274300
                                                         0.769911       0.446711
                                                         0.348157       0.028674
                                                         0.128212       0.029790
                          1       5    4dyz              5.605331       1.108557
                                                         2.113016       0.475102
                                                         0.769911       0.773726
                                                         0.348157       0.049666
                                                         0.128212       0.051599
                          1       5    4dz2              5.605331       0.640026
                                                         2.113016       0.274300
                                                         0.769911       0.446711
                                                         0.348157       0.028674
                                                         0.128212       0.029790

       Atomic covalent radius [Angstrom]:                                  0.770

       Atomic van der Waals radius [Angstrom]:                             1.700

     GTH Potential information for                                    GTH-PBE-q4

       Description:                       Goedecker-Teter-Hutter pseudopotential
                                           Goedecker et al., PRB 54, 1703 (1996)
                                          Hartwigsen et al., PRB 58, 3641 (1998)
                                                      Krack, TCA 114, 145 (2005)

       Gaussian exponent of the core charge distribution:               4.364419
       Electronic configuration (s p d ...):                               2   2

       Parameters of the local part of the GTH pseudopotential:

                          rloc        C1          C2          C3          C4
                        0.338471   -8.803674    1.339211

       Parameters of the non-local part of the GTH pseudopotential:

                   l      r(l)      h(i,j,l)

                   0    0.302576    9.622487
                   1    0.291507

  2. Atomic kind: Na                                    Number of atoms:       1

     Orbital Basis Set                                        DZVP-MOLOPT-SR-GTH

       Number of orbital shell sets:                                           1
       Number of orbital shells:                                               5
       Number of primitive Cartesian functions:                                7
       Number of Cartesian basis functions:                                    9
       Number of spherical basis functions:                                    9
       Norm type:                                                              2

       Normalised Cartesian orbitals:

                        Set   Shell   Orbital            Exponent    Coefficient

                          1       1    2s               23.518801       0.288931
                                                        11.135656       0.787174
                                                         4.647814      -0.190850
                                                         1.866708      -0.573823
                                                         0.734684      -0.276866
                                                         0.275673      -0.024211
                                                         0.049895      -0.000019

                          1       2    3s               23.518801       0.039212
                                                        11.135656       0.138585
                                                         4.647814      -0.048916
                                                         1.866708      -0.102378
                                                         0.734684      -0.139633
                                                         0.275673       0.012767
                                                         0.049895       0.077569

                          1       3    4s               23.518801       0.303698
                                                        11.135656      -0.548845
                                                         4.647814       0.534441
                                                         1.866708      -0.220920
                                                         0.734684       0.980584
                                                         0.275673      -0.653367
                                                         0.049895       0.063703

                          1       4    3px              23.518801      -2.919466
                                                        11.135656      -2.855941
                                                         4.647814      -2.579491
                                                         1.866708      -1.208264
                                                         0.734684      -0.321406
                                                         0.275673      -0.035032
                                                         0.049895      -0.000067
                          1       4    3py              23.518801      -2.919466
                                                        11.135656      -2.855941
                                                         4.647814      -2.579491
                                                         1.866708      -1.208264
                                                         0.734684      -0.321406
                                                         0.275673      -0.035032
                                                         0.049895      -0.000067
                          1       4    3pz              23.518801      -2.919466
                                                        11.135656      -2.855941
                                                         4.647814      -2.579491
                                                         1.866708      -1.208264
                                                         0.734684      -0.321406
                                                         0.275673      -0.035032
                                                         0.049895      -0.000067

                          1       5    4px              23.518801      -0.381914
                                                        11.135656      -0.488169
                                                         4.647814      -0.407378
                                                         1.866708      -0.201739
                                                         0.734684      -0.078845
                                                         0.275673       0.043427
                                                         0.049895       0.031563
                          1       5    4py              23.518801      -0.381914
                                                        11.135656      -0.488169
                                                         4.647814      -0.407378
                                                         1.866708      -0.201739
                                                         0.734684      -0.078845
                                                         0.275673       0.043427
                                                         0.049895       0.031563
                          1       5    4pz              23.518801      -0.381914
                                                        11.135656      -0.488169
                                                         4.647814      -0.407378
                                                         1.866708      -0.201739
                                                         0.734684      -0.078845
                                                         0.275673       0.043427
                                                         0.049895       0.031563

       Atomic covalent radius [Angstrom]:                                  1.540

       Atomic van der Waals radius [Angstrom]:                             2.270

     GTH Potential information for                                    GTH-PBE-q9

       Description:                       Goedecker-Teter-Hutter pseudopotential
                                           Goedecker et al., PRB 54, 1703 (1996)
                                          Hartwigsen et al., PRB 58, 3641 (1998)
                                                      Krack, TCA 114, 145 (2005)

       Gaussian exponent of the core charge distribution:               8.937631
       Electronic configuration (s p d ...):                               3   6

       Parameters of the local part of the GTH pseudopotential:

                          rloc        C1          C2          C3          C4
                        0.236523    0.295105   -0.913885

       Parameters of the non-local part of the GTH pseudopotential:

                   l      r(l)      h(i,j,l)

                   0    0.143560   34.601492
                   1    0.129932  -14.277462


 MOLECULE KIND INFORMATION


 All atoms are their own molecule, skipping detailed information


 TOTAL NUMBERS AND MAXIMUM NUMBERS

  Total number of            - Atomic kinds:                                   2
                             - Atoms:                                        225
                             - Shell sets:                                   225
                             - Shells:                                      1125
                             - Primitive Cartesian functions:               1127
                             - Cartesian basis functions:                   3145
                             - Spherical basis functions:                   2921

  Maximum angular momentum of- Orbital basis functions:                        2
                             - Local part of the GTH pseudopotential:          2
                             - Non-local part of the GTH pseudopotential:      1


 MODULE QUICKSTEP: ATOMIC COORDINATES IN ANGSTROM

   Atom Kind Element         X             Y             Z       Z(eff)     Mass
      1    1 C     6      8.620659     14.924398      3.583360   4.0000  12.0107
      2    1 C     6      8.627178     14.937985      0.055408   4.0000  12.0107
      3    1 C     6      9.849860     15.643269      3.600392   4.0000  12.0107
      4    1 C     6      9.855946     15.657603      0.056077   4.0000  12.0107
      5    1 C     6     11.075794     14.924012      3.698294   4.0000  12.0107
      6    1 C     6     11.083026     14.938638      0.052755   4.0000  12.0107
      7    1 C     6     12.304530     15.644678      3.691640   4.0000  12.0107
      8    1 C     6     12.311965     15.657967      0.053059   4.0000  12.0107
      9    1 C     6     13.530364     14.925789      3.774080   4.0000  12.0107
     10    1 C     6     13.538912     14.938686      0.040789   4.0000  12.0107
     11    1 C     6     14.759525     15.644406      3.700675   4.0000  12.0107
     12    1 C     6     14.768246     15.657597      0.055102   4.0000  12.0107
     13    1 C     6     15.985159     14.923153      3.709598   4.0000  12.0107
     14    1 C     6     15.995009     14.938190      0.054626   4.0000  12.0107
     15    1 C     6     17.214197     15.642458      3.626929   4.0000  12.0107
     16    1 C     6     17.224424     15.656872      0.063061   4.0000  12.0107
     17    1 C     6     18.440119     14.922181      3.601929   4.0000  12.0107
     18    1 C     6     18.451142     14.937452      0.060213   4.0000  12.0107
     19    1 C     6     19.671418     15.640901      3.563151   4.0000  12.0107
     20    1 C     6     19.680374     15.655994      0.057837   4.0000  12.0107
     21    1 C     6     20.897633     14.924063      3.533191   4.0000  12.0107
     22    1 C     6     20.907223     14.936774      0.050180   4.0000  12.0107
     23    1 C     6     22.126884     15.646147      3.539421   4.0000  12.0107
     24    1 C     6     22.136482     15.655581      0.049429   4.0000  12.0107
     25    1 C     6     23.354064     14.926621      3.516438   4.0000  12.0107
     26    1 C     6     23.363467     14.936580      0.043803   4.0000  12.0107
     27    1 C     6     24.583173     15.646944      3.527933   4.0000  12.0107
     28    1 C     6     24.592481     15.655840      0.047143   4.0000  12.0107
     29    1 C     6     25.811330     14.926265      3.519259   4.0000  12.0107
     30    1 C     6     25.819474     14.937070      0.046349   4.0000  12.0107
     31    1 C     6     27.040790     15.645000      3.531872   4.0000  12.0107
     32    1 C     6     27.048178     15.656794      0.050223   4.0000  12.0107
     33    1 C     6     25.803662     13.499714      3.522986   4.0000  12.0107
     34    1 C     6     25.809509     13.511736      0.046662   4.0000  12.0107
     35    1 C     6     23.344944     13.499978      3.501465   4.0000  12.0107
     36    1 C     6     23.353839     13.511370      0.039888   4.0000  12.0107
     37    1 C     6     20.886455     13.497640      3.530677   4.0000  12.0107
     38    1 C     6     20.898052     13.511441      0.048312   4.0000  12.0107
     39    1 C     6     18.428717     13.496020      3.644921   4.0000  12.0107
     40    1 C     6     18.442101     13.512042      0.055974   4.0000  12.0107
     41    1 C     6     15.975716     13.498983      3.825456   4.0000  12.0107
     42    1 C     6     15.985805     13.512656      0.024172   4.0000  12.0107
     43    1 C     6     14.749187     12.785068      3.988630   4.0000  12.0107
     44    1 C     6     14.756938     12.794977     -0.043744   4.0000  12.0107
     45    1 C     6     13.520454     13.504402      3.930156   4.0000  12.0107
     46    1 C     6     13.529242     13.513687     -0.017447   4.0000  12.0107
     47    1 C     6     12.289620     12.785800      3.985904   4.0000  12.0107
     48    1 C     6     12.299902     12.795075     -0.041863   4.0000  12.0107
     49    1 C     6     11.065582     13.500243      3.819084   4.0000  12.0107
     50    1 C     6     11.073081     13.513064      0.026526   4.0000  12.0107
     51    1 C     6      9.836892     12.780121      3.777071   4.0000  12.0107
     52    1 C     6      9.844480     12.793483      0.035458   4.0000  12.0107
     53    1 C     6      8.612729     13.498239      3.635385   4.0000  12.0107
     54    1 C     6      8.617155     13.512458      0.056245   4.0000  12.0107
     55    1 C     6      7.383758     12.779915      3.583773   4.0000  12.0107
     56    1 C     6      7.388511     12.792662      0.053905   4.0000  12.0107
     57    1 C     6     24.573574     12.780583      3.505976   4.0000  12.0107
     58    1 C     6     24.580793     12.792208      0.041704   4.0000  12.0107
     59    1 C     6     22.114819     12.779708      3.510633   4.0000  12.0107
     60    1 C     6     22.124975     12.792142      0.042600   4.0000  12.0107
     61    1 C     6     19.656284     12.778100      3.592588   4.0000  12.0107
     62    1 C     6     19.669025     12.792450      0.054046   4.0000  12.0107
     63    1 C     6     17.202183     12.778499      3.783374   4.0000  12.0107
     64    1 C     6     17.212870     12.793264      0.032000   4.0000  12.0107
     65    1 C     6     24.565000     11.354731      3.508367   4.0000  12.0107
     66    1 C     6     24.571745     11.367001      0.043570   4.0000  12.0107
     67    1 C     6     23.334254     10.635447      3.504054   4.0000  12.0107
     68    1 C     6     23.342995     10.647617      0.041900   4.0000  12.0107
     69    1 C     6     22.105645     11.354014      3.516883   4.0000  12.0107
     70    1 C     6     22.116220     11.366928      0.044319   4.0000  12.0107
     71    1 C     6     20.875595     10.635042      3.561601   4.0000  12.0107
     72    1 C     6     20.887458     10.647599      0.051865   4.0000  12.0107
     73    1 C     6     19.646763     11.352552      3.621091   4.0000  12.0107
     74    1 C     6     19.660683     11.367016      0.054088   4.0000  12.0107
     75    1 C     6     18.419716     10.634902      3.750844   4.0000  12.0107
     76    1 C     6     18.431796     10.647742      0.034344   4.0000  12.0107
     77    1 C     6     17.195425     11.353853      3.877622   4.0000  12.0107
     78    1 C     6     17.205840     11.368111     -0.005454   4.0000  12.0107
     79    1 C     6     15.974888     10.639551      4.098566   4.0000  12.0107
     80    1 C     6     15.979104     10.649762     -0.110011   4.0000  12.0107
     81    1 C     6     14.745518     11.365403      4.178385   4.0000  12.0107
     82    1 C     6     14.751477     11.371731     -0.146256   4.0000  12.0107
     83    1 C     6     13.509529     10.649904      4.337627   4.0000  12.0107
     84    1 C     6     13.519292     10.654297     -0.238093   4.0000  12.0107
     85    1 C     6     12.275501     11.366424      4.176823   4.0000  12.0107
     86    1 C     6     12.288957     11.371925     -0.145250   4.0000  12.0107
     87    1 C     6     11.043243     10.641660      4.097721   4.0000  12.0107
     88    1 C     6     11.059737     10.649666     -0.109000   4.0000  12.0107
     89    1 C     6      9.824810     11.355661      3.874765   4.0000  12.0107
     90    1 C     6      9.835136     11.368349     -0.001005   4.0000  12.0107
     91    1 C     6      8.597898     10.635819      3.750070   4.0000  12.0107
     92    1 C     6      8.606618     10.648000      0.036244   4.0000  12.0107
     93    1 C     6      7.375138     11.354324      3.611504   4.0000  12.0107
     94    1 C     6      7.379407     11.367254      0.054785   4.0000  12.0107
     95    1 C     6      6.145839     10.636094      3.543686   4.0000  12.0107
     96    1 C     6      6.150579     10.647717      0.051025   4.0000  12.0107
     97    1 C     6      6.136939      9.210791      3.546682   4.0000  12.0107
     98    1 C     6      6.140586      9.222412      0.051654   4.0000  12.0107
     99    1 C     6      7.365082      8.492959      3.631554   4.0000  12.0107
    100    1 C     6      7.367369      8.502997      0.051769   4.0000  12.0107
    101    1 C     6      8.590373      9.210763      3.772530   4.0000  12.0107
    102    1 C     6      8.596337      9.222449      0.029060   4.0000  12.0107
    103    1 C     6      9.811258      8.492185      3.947126   4.0000  12.0107
    104    1 C     6      9.821900      8.502183     -0.035193   4.0000  12.0107
    105    1 C     6     11.030203      9.210979      4.160815   4.0000  12.0107
    106    1 C     6     11.047562      9.221982     -0.140923   4.0000  12.0107
    107    1 C     6     12.256620      8.484785      4.330173   4.0000  12.0107
    108    1 C     6     12.274226      8.498199     -0.234333   4.0000  12.0107
    109    1 C     6     13.499386      9.209594      4.449467   4.0000  12.0107
    110    1 C     6     13.509484      9.221233     -0.311276   4.0000  12.0107
    111    1 C     6     14.738681      8.482118      4.323731   4.0000  12.0107
    112    1 C     6     14.742273      8.498317     -0.230303   4.0000  12.0107
    113    1 C     6     15.967387      9.208184      4.156399   4.0000  12.0107
    114    1 C     6     15.970751      9.222117     -0.137964   4.0000  12.0107
    115    1 C     6     17.184303      8.489328      3.939731   4.0000  12.0107
    116    1 C     6     17.194016      8.502036     -0.031373   4.0000  12.0107
    117    1 C     6     18.407685      9.208870      3.771555   4.0000  12.0107
    118    1 C     6     18.421855      9.222233      0.029836   4.0000  12.0107
    119    1 C     6     19.632200      8.491126      3.633912   4.0000  12.0107
    120    1 C     6     19.648683      8.502745      0.052748   4.0000  12.0107
    121    1 C     6     20.862711      9.209389      3.559414   4.0000  12.0107
    122    1 C     6     20.877590      9.222263      0.052360   4.0000  12.0107
    123    1 C     6     22.092231      8.491129      3.514526   4.0000  12.0107
    124    1 C     6     22.104301      8.502966      0.045310   4.0000  12.0107
    125    1 C     6     23.323964      9.209974      3.502896   4.0000  12.0107
    126    1 C     6     23.333084      9.222364      0.042488   4.0000  12.0107
    127    1 C     6     22.084007      7.065723      3.508468   4.0000  12.0107
    128    1 C     6     22.094972      7.077710      0.043444   4.0000  12.0107
    129    1 C     6     20.852702      6.347240      3.530058   4.0000  12.0107
    130    1 C     6     20.866273      6.358148      0.048206   4.0000  12.0107
    131    1 C     6     19.624077      7.065945      3.609941   4.0000  12.0107
    132    1 C     6     19.639323      7.077348      0.052347   4.0000  12.0107
    133    1 C     6     18.395296      6.347468      3.692274   4.0000  12.0107
    134    1 C     6     18.410544      6.357546      0.045946   4.0000  12.0107
    135    1 C     6     17.173542      7.063428      3.875167   4.0000  12.0107
    136    1 C     6     17.183740      7.076499     -0.002492   4.0000  12.0107
    137    1 C     6     15.945330      6.342081      3.962664   4.0000  12.0107
    138    1 C     6     15.955410      6.355681     -0.030553   4.0000  12.0107
    139    1 C     6     14.721879      7.052862      4.173699   4.0000  12.0107
    140    1 C     6     14.729249      7.071027     -0.137022   4.0000  12.0107
    141    1 C     6     13.483261      6.334293      4.124411   4.0000  12.0107
    142    1 C     6     13.498096      6.351458     -0.106313   4.0000  12.0107
    143    1 C     6     12.252376      7.055091      4.179734   4.0000  12.0107
    144    1 C     6     12.268835      7.070740     -0.141404   4.0000  12.0107
    145    1 C     6     11.029218      6.343532      3.972452   4.0000  12.0107
    146    1 C     6     11.040273      6.355647     -0.036729   4.0000  12.0107
    147    1 C     6      9.804975      7.066273      3.885049   4.0000  12.0107
    148    1 C     6      9.813947      7.076550     -0.008656   4.0000  12.0107
    149    1 C     6      8.582430      6.350376      3.709066   4.0000  12.0107
    150    1 C     6      8.585127      6.357779      0.043994   4.0000  12.0107
    151    1 C     6      7.356371      7.068408      3.620755   4.0000  12.0107
    152    1 C     6      7.358317      7.077547      0.052160   4.0000  12.0107
    153    1 C     6      6.126927      6.349838      3.549639   4.0000  12.0107
    154    1 C     6      6.129336      6.358366      0.050425   4.0000  12.0107
    155    1 C     6      4.897092      7.066631      3.513455   4.0000  12.0107
    156    1 C     6      4.902548      7.077774      0.044361   4.0000  12.0107
    157    1 C     6      4.905844      8.491848      3.510075   4.0000  12.0107
    158    1 C     6      4.911759      8.503055      0.045090   4.0000  12.0107
    159    1 C     6      3.665944      6.347165      3.503205   4.0000  12.0107
    160    1 C     6      3.673784      6.358420      0.040873   4.0000  12.0107
    161    1 C     6      3.657094      4.921125      3.513554   4.0000  12.0107
    162    1 C     6      3.664085      4.933089      0.042348   4.0000  12.0107
    163    1 C     6      4.886052      4.203039      3.541084   4.0000  12.0107
    164    1 C     6      4.890821      4.213826      0.047663   4.0000  12.0107
    165    1 C     6      6.117637      4.925155      3.561523   4.0000  12.0107
    166    1 C     6      6.119955      4.932854      0.051260   4.0000  12.0107
    167    1 C     6      7.343721      4.204679      3.596468   4.0000  12.0107
    168    1 C     6      7.346562      4.213306      0.058340   4.0000  12.0107
    169    1 C     6      8.573808      4.925383      3.657035   4.0000  12.0107
    170    1 C     6      8.575846      4.932088      0.055946   4.0000  12.0107
    171    1 C     6      9.798254      4.203658      3.692431   4.0000  12.0107
    172    1 C     6      9.802318      4.212357      0.056997   4.0000  12.0107
    173    1 C     6     11.024256      4.921376      3.819394   4.0000  12.0107
    174    1 C     6     11.031625      4.930699      0.028850   4.0000  12.0107
    175    1 C     6     12.250020      4.200228      3.801069   4.0000  12.0107
    176    1 C     6     12.257939      4.210595      0.036514   4.0000  12.0107
    177    1 C     6     13.477342      4.917720      3.909890   4.0000  12.0107
    178    1 C     6     13.487262      4.927359     -0.000249   4.0000  12.0107
    179    1 C     6     14.704178      4.201311      3.795729   4.0000  12.0107
    180    1 C     6     14.715215      4.210704      0.037325   4.0000  12.0107
    181    1 C     6     15.933345      4.920761      3.808077   4.0000  12.0107
    182    1 C     6     15.944242      4.930671      0.031145   4.0000  12.0107
    183    1 C     6     17.157733      4.203505      3.666152   4.0000  12.0107
    184    1 C     6     17.171575      4.212181      0.054367   4.0000  12.0107
    185    1 C     6     18.386664      4.922455      3.623389   4.0000  12.0107
    186    1 C     6     18.400466      4.931935      0.053182   4.0000  12.0107
    187    1 C     6     19.614529      4.202888      3.538159   4.0000  12.0107
    188    1 C     6     19.627524      4.213114      0.050433   4.0000  12.0107
    189    1 C     6     20.844918      4.921291      3.517104   4.0000  12.0107
    190    1 C     6     20.856321      4.932763      0.045864   4.0000  12.0107
    191    1 C     6     19.608641      2.776264      3.526229   4.0000  12.0107
    192    1 C     6     19.617750      2.787676      0.049728   4.0000  12.0107
    193    1 C     6     18.379391      2.057786      3.535331   4.0000  12.0107
    194    1 C     6     18.389153      2.067902      0.051372   4.0000  12.0107
    195    1 C     6     17.151154      2.778457      3.587676   4.0000  12.0107
    196    1 C     6     17.161987      2.786609      0.055932   4.0000  12.0107
    197    1 C     6     15.922666      2.059043      3.586662   4.0000  12.0107
    198    1 C     6     15.933336      2.066789      0.054899   4.0000  12.0107
    199    1 C     6     14.695782      2.778823      3.657799   4.0000  12.0107
    200    1 C     6     14.706089      2.785438      0.056757   4.0000  12.0107
    201    1 C     6     13.467648      2.057931      3.615444   4.0000  12.0107
    202    1 C     6     13.476843      2.066449      0.056291   4.0000  12.0107
    203    1 C     6     12.241322      2.777227      3.665038   4.0000  12.0107
    204    1 C     6     12.249492      2.785327      0.058879   4.0000  12.0107
    205    1 C     6     11.013140      2.055486      3.608448   4.0000  12.0107
    206    1 C     6     11.020339      2.066972      0.062294   4.0000  12.0107
    207    1 C     6      9.787544      2.776665      3.624481   4.0000  12.0107
    208    1 C     6      9.793544      2.786714      0.064990   4.0000  12.0107
    209    1 C     6      8.557388      2.056011      3.606357   4.0000  12.0107
    210    1 C     6      8.564428      2.068105      0.065339   4.0000  12.0107
    211    1 C     6      6.101832      2.056082      3.619935   4.0000  12.0107
    212    1 C     6      6.108475      2.068895      0.059825   4.0000  12.0107
    213    1 C     6      7.331701      2.776967      3.602155   4.0000  12.0107
    214    1 C     6      7.337606      2.787717      0.061962   4.0000  12.0107
    215    1 C     6      4.875553      2.776432      3.585553   4.0000  12.0107
    216    1 C     6      4.881589      2.788374      0.053555   4.0000  12.0107
    217    1 C     6      3.645989      2.055530      3.599077   4.0000  12.0107
    218    1 C     6      3.652547      2.069196      0.054082   4.0000  12.0107
    219    1 C     6      2.418716      2.775117      3.542652   4.0000  12.0107
    220    1 C     6      2.425536      2.788374      0.048942   4.0000  12.0107
    221    1 C     6      2.426440      4.201554      3.512586   4.0000  12.0107
    222    1 C     6      2.435170      4.213750      0.043612   4.0000  12.0107
    223    1 C     6      1.189608      2.055336      3.542484   4.0000  12.0107
    224    1 C     6      1.196808      2.068775      0.050984   4.0000  12.0107
    225    2 Na   11     13.468168      9.247721      2.108136   9.0000  22.9898



 SCF PARAMETERS         Density guess:                                    ATOMIC
                        --------------------------------------------------------
                        max_scf:                                             400
                        max_scf_history:                                       0
                        max_diis:                                              4
                        --------------------------------------------------------
                        eps_scf:                                        3.00E-07
                        eps_scf_history:                                0.00E+00
                        eps_diis:                                       1.00E-01
                        eps_eigval:                                     1.00E-05
                        --------------------------------------------------------
                        level_shift [a.u.]:                             0.000000
                        added MOs                                       100    0
                        --------------------------------------------------------
                        Mixing method:                            BROYDEN_MIXING
                                                charge density mixing in g-space
                        --------------------------------------------------------
                        Smear method:                                FERMI_DIRAC
                        Electronic temperature [K]:                        300.0
                        Electronic temperature [a.u.]:                  9.50E-04
                        Accuracy threshold:                             1.00E-10
                        --------------------------------------------------------
                        Outer loop SCF in use 
                        No variables optimised in outer loop
                        eps_scf                                         1.00E-06
                        max_scf                                              100
                        DIIS optimization
                        DIIS buffer length                                     3
                        step_size                                       5.00E-01

 PW_GRID| Information for grid number                                          1
 PW_GRID| Grid distributed over                                    16 processors
 PW_GRID| Real space group dimensions                                    16    1
 PW_GRID| the grid is blocked:                                                NO
 PW_GRID| Cutoff [a.u.]                                                    150.0
 PW_GRID| spherical cutoff:                                                   NO
 PW_GRID|   Bounds   1           -108     107                Points:         216
 PW_GRID|   Bounds   2            -96      95                Points:         192
 PW_GRID|   Bounds   3           -160     159                Points:         320
 PW_GRID| Volume element (a.u.^3)  0.4500E-02     Volume (a.u.^3)     59722.8868
 PW_GRID| Grid span                                                    FULLSPACE
 PW_GRID|   Distribution                         Average         Max         Min
 PW_GRID|   G-Vectors                           829440.0      829440      829440
 PW_GRID|   G-Rays                                3840.0        3840        3840
 PW_GRID|   Real Space Points                   829440.0      860160      798720

 PW_GRID| Information for grid number                                          2
 PW_GRID| Number of the reference grid                                         1
 PW_GRID| Grid distributed over                                    16 processors
 PW_GRID| Real space group dimensions                                    16    1
 PW_GRID| the grid is blocked:                                                NO
 PW_GRID| Cutoff [a.u.]                                                     50.0
 PW_GRID| spherical cutoff:                                                   NO
 PW_GRID|   Bounds   1            -60      59                Points:         120
 PW_GRID|   Bounds   2            -54      53                Points:         108
 PW_GRID|   Bounds   3            -96      95                Points:         192
 PW_GRID| Volume element (a.u.^3)  0.2400E-01     Volume (a.u.^3)     59722.8868
 PW_GRID| Grid span                                                    FULLSPACE
 PW_GRID|   Distribution                         Average         Max         Min
 PW_GRID|   G-Vectors                           155520.0      156360      154920
 PW_GRID|   G-Rays                                1296.0        1303        1291
 PW_GRID|   Real Space Points                   155520.0      165888      145152

 PW_GRID| Information for grid number                                          3
 PW_GRID| Number of the reference grid                                         1
 PW_GRID| Grid distributed over                                    16 processors
 PW_GRID| Real space group dimensions                                    16    1
 PW_GRID| the grid is blocked:                                                NO
 PW_GRID| Cutoff [a.u.]                                                     16.7
 PW_GRID| spherical cutoff:                                                   NO
 PW_GRID|   Bounds   1            -36      35                Points:          72
 PW_GRID|   Bounds   2            -32      31                Points:          64
 PW_GRID|   Bounds   3            -54      53                Points:         108
 PW_GRID| Volume element (a.u.^3)  0.1200         Volume (a.u.^3)     59722.8868
 PW_GRID| Grid span                                                    FULLSPACE
 PW_GRID|   Distribution                         Average         Max         Min
 PW_GRID|   G-Vectors                            31104.0       31176       31032
 PW_GRID|   G-Rays                                 432.0         433         431
 PW_GRID|   Real Space Points                    31104.0       34560       27648

 PW_GRID| Information for grid number                                          4
 PW_GRID| Number of the reference grid                                         1
 PW_GRID| Grid distributed over                                    16 processors
 PW_GRID| Real space group dimensions                                    16    1
 PW_GRID| the grid is blocked:                                                NO
 PW_GRID| Cutoff [a.u.]                                                      5.6
 PW_GRID| spherical cutoff:                                                   NO
 PW_GRID|   Bounds   1            -20      19                Points:          40
 PW_GRID|   Bounds   2            -18      17                Points:          36
 PW_GRID|   Bounds   3            -32      31                Points:          64
 PW_GRID| Volume element (a.u.^3)  0.6480         Volume (a.u.^3)     59722.8868
 PW_GRID| Grid span                                                    FULLSPACE
 PW_GRID|   Distribution                         Average         Max         Min
 PW_GRID|   G-Vectors                             5760.0        6000        5600
 PW_GRID|   G-Rays                                 144.0         150         140
 PW_GRID|   Real Space Points                     5760.0        6912        4608

 POISSON| Solver                                                        PERIODIC
 POISSON| Periodicity                                                        XYZ

 RS_GRID| Information for grid number                                          1
 RS_GRID|   Bounds   1           -108     107                Points:         216
 RS_GRID|   Bounds   2            -96      95                Points:         192
 RS_GRID|   Bounds   3           -160     159                Points:         320
 RS_GRID| Real space distribution over                                  4 groups
 RS_GRID| Real space distribution along direction                              1
 RS_GRID| Border size                                                         35
 RS_GRID| Real space distribution over                                  4 groups
 RS_GRID| Real space distribution along direction                              3
 RS_GRID| Border size                                                         35
 RS_GRID|   Distribution                         Average         Max         Min
 RS_GRID|   Planes                                 124.0         124         124
 RS_GRID|   Distribution                         Average         Max         Min
 RS_GRID|   Planes                                 150.0         150         150

 RS_GRID| Information for grid number                                          2
 RS_GRID|   Bounds   1            -60      59                Points:         120
 RS_GRID|   Bounds   2            -54      53                Points:         108
 RS_GRID|   Bounds   3            -96      95                Points:         192
 RS_GRID| Real space fully replicated
 RS_GRID| Group size                                                           1

 RS_GRID| Information for grid number                                          3
 RS_GRID|   Bounds   1            -36      35                Points:          72
 RS_GRID|   Bounds   2            -32      31                Points:          64
 RS_GRID|   Bounds   3            -54      53                Points:         108
 RS_GRID| Real space fully replicated
 RS_GRID| Group size                                                           1

 RS_GRID| Information for grid number                                          4
 RS_GRID|   Bounds   1            -20      19                Points:          40
 RS_GRID|   Bounds   2            -18      17                Points:          36
 RS_GRID|   Bounds   3            -32      31                Points:          64
 RS_GRID| Real space fully replicated
 RS_GRID| Group size                                                           1

 -------------------------------------------------------------------------------
 -                                                                             -
 -  BSSE CALCULATION         FRAGMENT CONF: 10        FRAGMENT SUBCONF: 10     -
 -                           CHARGE =     0           MULTIPLICITY =     0     -
 -                                                                             -
 -                 ATOM INDEX                              ATOM NAME           -
 -                 ----------                              ---------           -
 -                      1                                   C                  -
 -                      2                                   C                  -
 -                      3                                   C                  -
 -                      4                                   C                  -
 -                      5                                   C                  -
 -                      6                                   C                  -
 -                      7                                   C                  -
 -                      8                                   C                  -
 -                      9                                   C                  -
 -                     10                                   C                  -
 -                     11                                   C                  -
 -                     12                                   C                  -
 -                     13                                   C                  -
 -                     14                                   C                  -
 -                     15                                   C                  -
 -                     16                                   C                  -
 -                     17                                   C                  -
 -                     18                                   C                  -
 -                     19                                   C                  -
 -                     20                                   C                  -
 -                     21                                   C                  -
 -                     22                                   C                  -
 -                     23                                   C                  -
 -                     24                                   C                  -
 -                     25                                   C                  -
 -                     26                                   C                  -
 -                     27                                   C                  -
 -                     28                                   C                  -
 -                     29                                   C                  -
 -                     30                                   C                  -
 -                     31                                   C                  -
 -                     32                                   C                  -
 -                     33                                   C                  -
 -                     34                                   C                  -
 -                     35                                   C                  -
 -                     36                                   C                  -
 -                     37                                   C                  -
 -                     38                                   C                  -
 -                     39                                   C                  -
 -                     40                                   C                  -
 -                     41                                   C                  -
 -                     42                                   C                  -
 -                     43                                   C                  -
 -                     44                                   C                  -
 -                     45                                   C                  -
 -                     46                                   C                  -
 -                     47                                   C                  -
 -                     48                                   C                  -
 -                     49                                   C                  -
 -                     50                                   C                  -
 -                     51                                   C                  -
 -                     52                                   C                  -
 -                     53                                   C                  -
 -                     54                                   C                  -
 -                     55                                   C                  -
 -                     56                                   C                  -
 -                     57                                   C                  -
 -                     58                                   C                  -
 -                     59                                   C                  -
 -                     60                                   C                  -
 -                     61                                   C                  -
 -                     62                                   C                  -
 -                     63                                   C                  -
 -                     64                                   C                  -
 -                     65                                   C                  -
 -                     66                                   C                  -
 -                     67                                   C                  -
 -                     68                                   C                  -
 -                     69                                   C                  -
 -                     70                                   C                  -
 -                     71                                   C                  -
 -                     72                                   C                  -
 -                     73                                   C                  -
 -                     74                                   C                  -
 -                     75                                   C                  -
 -                     76                                   C                  -
 -                     77                                   C                  -
 -                     78                                   C                  -
 -                     79                                   C                  -
 -                     80                                   C                  -
 -                     81                                   C                  -
 -                     82                                   C                  -
 -                     83                                   C                  -
 -                     84                                   C                  -
 -                     85                                   C                  -
 -                     86                                   C                  -
 -                     87                                   C                  -
 -                     88                                   C                  -
 -                     89                                   C                  -
 -                     90                                   C                  -
 -                     91                                   C                  -
 -                     92                                   C                  -
 -                     93                                   C                  -
 -                     94                                   C                  -
 -                     95                                   C                  -
 -                     96                                   C                  -
 -                     97                                   C                  -
 -                     98                                   C                  -
 -                     99                                   C                  -
 -                    100                                   C                  -
 -                    101                                   C                  -
 -                    102                                   C                  -
 -                    103                                   C                  -
 -                    104                                   C                  -
 -                    105                                   C                  -
 -                    106                                   C                  -
 -                    107                                   C                  -
 -                    108                                   C                  -
 -                    109                                   C                  -
 -                    110                                   C                  -
 -                    111                                   C                  -
 -                    112                                   C                  -
 -                    113                                   C                  -
 -                    114                                   C                  -
 -                    115                                   C                  -
 -                    116                                   C                  -
 -                    117                                   C                  -
 -                    118                                   C                  -
 -                    119                                   C                  -
 -                    120                                   C                  -
 -                    121                                   C                  -
 -                    122                                   C                  -
 -                    123                                   C                  -
 -                    124                                   C                  -
 -                    125                                   C                  -
 -                    126                                   C                  -
 -                    127                                   C                  -
 -                    128                                   C                  -
 -                    129                                   C                  -
 -                    130                                   C                  -
 -                    131                                   C                  -
 -                    132                                   C                  -
 -                    133                                   C                  -
 -                    134                                   C                  -
 -                    135                                   C                  -
 -                    136                                   C                  -
 -                    137                                   C                  -
 -                    138                                   C                  -
 -                    139                                   C                  -
 -                    140                                   C                  -
 -                    141                                   C                  -
 -                    142                                   C                  -
 -                    143                                   C                  -
 -                    144                                   C                  -
 -                    145                                   C                  -
 -                    146                                   C                  -
 -                    147                                   C                  -
 -                    148                                   C                  -
 -                    149                                   C                  -
 -                    150                                   C                  -
 -                    151                                   C                  -
 -                    152                                   C                  -
 -                    153                                   C                  -
 -                    154                                   C                  -
 -                    155                                   C                  -
 -                    156                                   C                  -
 -                    157                                   C                  -
 -                    158                                   C                  -
 -                    159                                   C                  -
 -                    160                                   C                  -
 -                    161                                   C                  -
 -                    162                                   C                  -
 -                    163                                   C                  -
 -                    164                                   C                  -
 -                    165                                   C                  -
 -                    166                                   C                  -
 -                    167                                   C                  -
 -                    168                                   C                  -
 -                    169                                   C                  -
 -                    170                                   C                  -
 -                    171                                   C                  -
 -                    172                                   C                  -
 -                    173                                   C                  -
 -                    174                                   C                  -
 -                    175                                   C                  -
 -                    176                                   C                  -
 -                    177                                   C                  -
 -                    178                                   C                  -
 -                    179                                   C                  -
 -                    180                                   C                  -
 -                    181                                   C                  -
 -                    182                                   C                  -
 -                    183                                   C                  -
 -                    184                                   C                  -
 -                    185                                   C                  -
 -                    186                                   C                  -
 -                    187                                   C                  -
 -                    188                                   C                  -
 -                    189                                   C                  -
 -                    190                                   C                  -
 -                    191                                   C                  -
 -                    192                                   C                  -
 -                    193                                   C                  -
 -                    194                                   C                  -
 -                    195                                   C                  -
 -                    196                                   C                  -
 -                    197                                   C                  -
 -                    198                                   C                  -
 -                    199                                   C                  -
 -                    200                                   C                  -
 -                    201                                   C                  -
 -                    202                                   C                  -
 -                    203                                   C                  -
 -                    204                                   C                  -
 -                    205                                   C                  -
 -                    206                                   C                  -
 -                    207                                   C                  -
 -                    208                                   C                  -
 -                    209                                   C                  -
 -                    210                                   C                  -
 -                    211                                   C                  -
 -                    212                                   C                  -
 -                    213                                   C                  -
 -                    214                                   C                  -
 -                    215                                   C                  -
 -                    216                                   C                  -
 -                    217                                   C                  -
 -                    218                                   C                  -
 -                    219                                   C                  -
 -                    220                                   C                  -
 -                    221                                   C                  -
 -                    222                                   C                  -
 -                    223                                   C                  -
 -                    224                                   C                  -
 -------------------------------------------------------------------------------

 CELL| Volume [angstrom^3]:                                          8850.018633
 CELL| Vector a [angstrom]:      19.648     0.000     0.000   |a| =    19.648000
 CELL| Vector b [angstrom]:       8.669    15.014     0.000   |b| =    17.337000
 CELL| Vector c [angstrom]:       0.000     0.000    30.000   |c| =    30.000000
 CELL| Angle (b,c), alpha [degree]:                                    90.000000
 CELL| Angle (a,c), beta  [degree]:                                    90.000000
 CELL| Angle (a,b), gamma [degree]:                                    60.000000
 CELL| Requested initial symmetry:                                     TRICLINIC
 CELL| Numerically orthorhombic:                                              NO
 CELL| Periodicity                                                           XYZ

 CELL_REF| Volume [angstrom^3]:                                      8850.018633
 CELL_REF| Vector a [angstrom    19.648     0.000     0.000   |a| =    19.648000
 CELL_REF| Vector b [angstrom     8.669    15.014     0.000   |b| =    17.337000
 CELL_REF| Vector c [angstrom     0.000     0.000    30.000   |c| =    30.000000
 CELL_REF| Angle (b,c), alpha [degree]:                                90.000000
 CELL_REF| Angle (a,c), beta  [degree]:                                90.000000
 CELL_REF| Angle (a,b), gamma [degree]:                                60.000000
 CELL_REF| Requested initial symmetry:                                 TRICLINIC
 CELL_REF| Numerically orthorhombic:                                          NO
 CELL_REF| Periodicity                                                       XYZ

[...]
    218       C      1       4.000          4.000                        -0.000
    219       C      1       4.000          4.000                        -0.000
    220       C      1       4.000          4.000                        -0.000
    221       C      1       4.000          4.001                        -0.001
    222       C      1       4.000          4.001                        -0.001
    223       C      1       4.000          4.001                        -0.001
    224       C      1       4.000          4.001                        -0.001
    225       Na     2       9.000         11.101                        -2.101

  Total Charge                                                            0.017
 !-----------------------------------------------------------------------------!

 *** WARNING in qs_loc_utils.F:1500 :: User requested the calculation of ***
 *** the localized wavefunction but the section LOCALIZE was not         ***
 *** specified. Localization will not be performed!                      ***


 -------------------------------------------------------------------------------
 ----                             MULTIGRID INFO                            ----
 -------------------------------------------------------------------------------
 count for grid        1:         189986          cutoff [a.u.]          150.00
 count for grid        2:         138991          cutoff [a.u.]           50.00
 count for grid        3:          82825          cutoff [a.u.]           16.67
 count for grid        4:          44090          cutoff [a.u.]            5.56
 total gridlevel count  :         455892

 -------------------------------------------------------------------------------
 -                                                                             -
 -                                 BSSE RESULTS                                -
 -                                                                             -
 -                 CP-corrected Total energy:    -1323.306264                  -
 -                                                                             -
 -                       1-body contribution:    -1276.091352                  -
 -                       1-body contribution:      -47.160405                  -
 -                                                                             -
 -                       2-body contribution:       -0.054507                  -
 -                 BSSE-free interaction energy:       -0.054507               -
 -------------------------------------------------------------------------------

 -------------------------------------------------------------------------------
 -                                                                             -
 -                                DBCSR STATISTICS                             -
 -                                                                             -
 -------------------------------------------------------------------------------
 COUNTER                                    TOTAL       BLAS       SMM       ACC
 flops     9 x     9 x     9               102060     100.0%      0.0%      0.0%
 flops     9 x     9 x    32               684288     100.0%      0.0%      0.0%
 flops     9 x     9 x   132               962280     100.0%      0.0%      0.0%
 flops     9 x     9 x   137              1154088     100.0%      0.0%      0.0%
 flops     9 x     9 x   160              2514240     100.0%      0.0%      0.0%
 flops     9 x     9 x   128              4022784     100.0%      0.0%      0.0%
 flops     9 x    13 x     9             10378368     100.0%      0.0%      0.0%
 flops    13 x     9 x     9             10378368     100.0%      0.0%      0.0%
 flops     9 x    13 x    32            110702592     100.0%      0.0%      0.0%
 flops    13 x     9 x    32            110702592     100.0%      0.0%      0.0%
 flops     9 x    13 x   132            155675520     100.0%      0.0%      0.0%
 flops    13 x     9 x   132            155675520     100.0%      0.0%      0.0%
 flops     9 x    13 x   137            186705792     100.0%      0.0%      0.0%
 flops    13 x     9 x   137            186705792     100.0%      0.0%      0.0%
 flops     9 x    13 x   160            406748160     100.0%      0.0%      0.0%
 flops    13 x     9 x   160            406748160     100.0%      0.0%      0.0%
 flops     9 x    13 x   128            650797056     100.0%      0.0%      0.0%
 flops    13 x     9 x   128            650797056     100.0%      0.0%      0.0%
 flops    13 x    13 x     9           3372969600     100.0%      0.0%      0.0%
 flops    13 x    13 x    32          35978342400     100.0%      0.0%      0.0%
 flops    13 x    13 x   137          60679382400     100.0%      0.0%      0.0%
 flops    13 x    13 x   132         101189088000     100.0%      0.0%      0.0%
 flops    13 x    13 x   160         193519872000     100.0%      0.0%      0.0%
 flops    13 x    13 x   128         309631795200     100.0%      0.0%      0.0%
 flops inhomo. stacks                           0       0.0%      0.0%      0.0%
 flops total                       707.422904E+09     100.0%      0.0%      0.0%
 flops max/rank                     45.380097E+09     100.0%      0.0%      0.0%
 matmuls inhomo. stacks                         0       0.0%      0.0%      0.0%
 matmuls total                           18875726     100.0%      0.0%      0.0%
 number of processed stacks                 28346     100.0%      0.0%      0.0%
 average stack size                                   665.9       0.0       0.0
 marketing flops                     1.097373E+12
 -------------------------------------------------------------------------------
 # multiplications                            212
 max memory usage/rank             931.786752E+06
 # max total images/rank                        1
 # max 3D layers                                1
 # MPI messages exchanged                   20352
 MPI messages size (bytes):
  total size                        11.584084E+09
  min size                           0.000000E+00
  max size                         943.360000E+03
  average size                     569.186500E+03
 MPI breakdown and total messages size (bytes):
             size <=      128                2340                        0
       128 < size <=     8192                 156                   101088
      8192 < size <=    32768                   0                        0
     32768 < size <=   131072                1056                 55522368
    131072 < size <=  4194304               16800              11528465280
   4194304 < size <= 16777216                   0                        0
  16777216 < size                               0                        0
 -------------------------------------------------------------------------------
 -                                                                             -
 -                      DBCSR MESSAGE PASSING PERFORMANCE                      -
 -                                                                             -
 -------------------------------------------------------------------------------
 ROUTINE             CALLS      AVE VOLUME [Bytes]
 MP_Bcast               25                     12.
 MP_Allreduce         1556                      9.
 MP_Alltoall          5996                 961568.
 MP_ISend             3392                 221474.
 MP_IRecv             3392                 202384.
 -------------------------------------------------------------------------------

 -------------------------------------------------------------------------------
 -                                                                             -
 -                                DBM STATISTICS                               -
 -                                                                             -
 -------------------------------------------------------------------------------
    M  x    N  x    K                                          COUNT     PERCENT
 -------------------------------------------------------------------------------

 -------------------------------------------------------------------------------
 -                                                                             -
 -                                GRID STATISTICS                              -
 -                                                                             -
 -------------------------------------------------------------------------------
 LP    KERNEL             BACKEND                              COUNT     PERCENT
 4     collocate general  REF                               41516330      49.98%
 4     integrate general  REF                               40642302      48.93%
 3     collocate general  REF                                 430416       0.52%
 3     integrate general  REF                                 421449       0.51%
 0     collocate general  REF                                  21600       0.03%
 0     integrate general  REF                                  14400       0.02%
 2     collocate general  REF                                   8379       0.01%
 2     integrate general  REF                                   8183       0.01%
 -------------------------------------------------------------------------------

 MEMORY| Estimated peak process memory [MiB]                                 889

 -------------------------------------------------------------------------------
 ----                             MULTIGRID INFO                            ----
 -------------------------------------------------------------------------------
 count for grid        1:         148480          cutoff [a.u.]          150.00
 count for grid        2:          51840          cutoff [a.u.]           50.00
 count for grid        3:          26560          cutoff [a.u.]           16.67
 count for grid        4:           7360          cutoff [a.u.]            5.56
 total gridlevel count  :         234240

 -------------------------------------------------------------------------------
 -                                                                             -
 -                         MESSAGE PASSING PERFORMANCE                         -
 -                                                                             -
 -------------------------------------------------------------------------------

 ROUTINE             CALLS      AVE VOLUME [Bytes]
 MP_Group               24
 MP_Bcast              573                1689595.
 MP_Allreduce         3058                   2236.
 MP_Sync               262
 MP_Alltoall          2848               23482664.
 MP_SendRecv         11904                 513492.
 MP_ISendRecv         9150                 519964.
 MP_Wait             14776
 MP_comm_split          26
 MP_ISend             4082                3203936.
 MP_IRecv             4082                3204558.
 MP_Recv               157                 721328.
 -------------------------------------------------------------------------------


 -------------------------------------------------------------------------------
 -                                                                             -
 -                           R E F E R E N C E S                               -
 -                                                                             -
 -------------------------------------------------------------------------------
 
 CP2K version 2023.1, the CP2K developers group (2023).
 CP2K is freely available from https://www.cp2k.org/ .

 Kuehne,Thomas D.; Iannuzzi,Marcella; Del Ben,Mauro;
 Rybkin,Vladimir V.; Seewald,Patrick; Stein,Frederick; Laino,Teodoro;
 Khaliullin,Rustam Z.; Schuett,Ole; Schiffmann,Florian; Golze,Dorothea;
 Wilhelm,Jan; Chulkov,Sergey; Bani-Hashemian,Mohammad Hossein;
 Weber,Valery; Borstnik,Urban; Taillefumier,Mathieu;
 Jakobovits,Alice Shoshana; Lazzaro,Alfio; Pabst,Hans; Mueller,Tiziano;
 Schade,Robert; Guidon,Manuel; Andermatt,Samuel; Holmberg,Nico;
 Schenter,Gregory K.; Hehn,Anna; Bussy,Augustin; Belleflamme,Fabian;
 Tabacchi,Gloria; Gloess,Andreas; Lass,Michael; Bethune,Iain;
 Mundy,Christopher J.; Plessl,Christian; Watkins,Matt;
 VandeVondele,Joost; Krack,Matthias; Hutter,Juerg. 
 The Journal of Chemical Physics, 152 (19), (2020). 
 CP2K: An electronic structure and molecular dynamics software package -
 Quickstep: Efficient and accurate electronic structure calculations.
 https://doi.org/10.1063/5.0007045

 Goerigk, Lars; Hansen, Andreas; Bauer, Christoph; Ehrlich, Stephan;
 Najibi, Asim; Grimme, Stefan. , 19 (48), (2017). 
 A look at the density functional theory zoo with the advanced GMTKN55 database
 for general main group thermochemistry, kinetics and noncovalent interactions.
 https://doi.org/10.1039/C7CP04913G

 Schuett, Ole; Messmer, Peter; Hutter, Juerg; VandeVondele, Joost. 
 Electronic Structure Calculations on Graphics Processing Units, John
 Wiley & Sons, Ltd, 173-190 (2016). 
 GPU-Accelerated Sparse Matrix-Matrix Multiplication for
 Linear Scaling Density Functional Theory.
 https://doi.org/10.1002/9781118670712.ch8

 Borstnik, U; VandeVondele, J; Weber, V; Hutter, J. 
 PARALLEL COMPUTING, 40 (5-6), 47-58 (2014). 
 Sparse matrix multiplication: The distributed block-compressed sparse
 row library.
 https://doi.org/10.1016/j.parco.2014.03.012

 Hutter, J; Iannuzzi, M; Schiffmann, F; VandeVondele, J. 
 WIREs Comput Mol Sci., 4 (1), 15-25 (2014). 
 CP2K: atomistic simulations of condensed matter systems.
 https://doi.org/10.1002/wcms.1159

 Marek, A; Blum, V; Johanni, R; Havu, V; Lang, B; Auckenthaler, T;
 Heinecke, A; Bungartz, H; Lederer, H. 
 Journal of Physics: Condensed Matter, 26 (21), (2014). 
 The ELPA library: scalable parallel eigenvalue solutions for
 electronic structure
 theory and computational science.
 https://doi.org/10.1088/0953-8984/26/21/213201

 Grimme, S; Ehrlich, S; Goerigk, L. 
 JOURNAL OF COMPUTATIONAL CHEMISTRY, 32, 1456 (2011). 
 Effect of the damping function in dispersion corrected density functional theory.
 https://doi.org/10.1002/jcc.21759

 Grimme, S; Antony, J; Ehrlich, S; Krieg, H. 
 JOURNAL OF CHEMICAL PHYSICS, 132 (15), 154104 (2010). 
 A consistent and accurate ab initio parametrization of density
 functional dispersion correction (DFT-D) for the 94 elements H-Pu.
 https://doi.org/10.1063/1.3382344

 VandeVondele, J; Hutter, J. 
 JOURNAL OF CHEMICAL PHYSICS, 127 (11), 114105 (2007). 
 Gaussian basis sets for accurate calculations on molecular systems in
 gas and condensed phases.
 https://doi.org/10.1063/1.2770708

 Krack, M. 
 THEORETICAL CHEMISTRY ACCOUNTS, 114 (1-3), 145-152 (2005). 
 Pseudopotentials for H to Kr optimized for gradient-corrected
 exchange-correlation functionals.
 https://doi.org/10.1007/s00214-005-0655-y

 VandeVondele, J; Krack, M; Mohamed, F; Parrinello, M; Chassaing, T;
 Hutter, J. COMPUTER PHYSICS COMMUNICATIONS, 167 (2), 103-128 (2005). 
 QUICKSTEP: Fast and accurate density functional calculations using a
 mixed Gaussian and plane waves approach.
 https://doi.org/10.1016/j.cpc.2004.12.014

 Frigo, M; Johnson, SG. 
 PROCEEDINGS OF THE IEEE, 93 (2), 216-231 (2005). 
 The design and implementation of FFTW3.
 https://doi.org/10.1109/JPROC.2004.840301

 Hartwigsen, C; Goedecker, S; Hutter, J. 
 PHYSICAL REVIEW B, 58 (7), 3641-3662 (1998). 
 Relativistic separable dual-space Gaussian pseudopotentials from H to Rn.
 https://doi.org/10.1103/PhysRevB.58.3641

 Lippert, G; Hutter, J; Parrinello, M. 
 MOLECULAR PHYSICS, 92 (3), 477-487 (1997). 
 A hybrid Gaussian and plane wave density functional scheme.
 https://doi.org/10.1080/002689797170220

 Perdew, JP; Burke, K; Ernzerhof, M. 
 PHYSICAL REVIEW LETTERS, 77 (18), 3865-3868 (1996). 
 Generalized gradient approximation made simple.
 https://doi.org/10.1103/PhysRevLett.77.3865

 Goedecker, S; Teter, M; Hutter, J. 
 PHYSICAL REVIEW B, 54 (3), 1703-1710 (1996). 
 Separable dual-space Gaussian pseudopotentials.
 https://doi.org/10.1103/PhysRevB.54.1703


 -------------------------------------------------------------------------------
 -                                                                             -
 -                                T I M I N G                                  -
 -                                                                             -
 -------------------------------------------------------------------------------
 SUBROUTINE                       CALLS  ASD         SELF TIME        TOTAL TIME
                                MAXIMUM       AVERAGE  MAXIMUM  AVERAGE  MAXIMUM
 CP2K                                 1  1.0    0.030    0.118 1914.361 1914.371
 qs_energies                          5  2.0    0.000    0.000 1911.886 1911.917
 scf_env_do_scf                       5  3.0    0.001    0.003 1894.770 1895.124
 scf_env_do_scf_inner_loop          212  4.0    0.009    0.037 1894.769 1895.120
 qs_scf_new_mos                     212  5.0    0.003    0.004  826.781  827.619
 eigensolver                        212  6.0    0.015    0.026  799.730  799.808
 qs_ks_update_qs_env                212  5.0    0.002    0.002  555.683  555.721
 rebuild_ks_matrix                  212  6.0    0.001    0.001  555.311  555.348
 qs_ks_build_kohn_sham_matrix       212  7.0    0.026    0.029  555.310  555.347
 cp_fm_diag_elpa                    186  7.0    0.001    0.002  485.732  485.791
 cp_fm_diag_elpa_base               186  8.0  483.078  483.777  485.631  485.631
 qs_rho_update_rho_low              217  5.0    0.001    0.002  437.140  437.230
 calculate_rho_elec                 217  6.0    0.848    0.879  437.139  437.229
 sum_up_and_integrate               212  8.0    1.595    1.663  433.443  433.478
 integrate_v_rspace                 212  9.0    0.006    0.006  431.848  431.932
 grid_integrate_task_list           212 10.0  378.762  383.890  378.762  383.890
 grid_collocate_task_list           217  7.0  357.983  363.603  357.983  363.603
 cp_fm_triangular_multiply          636  7.0  311.634  312.164  311.634  312.164
 pw_transfer                       2781  8.9    0.174    0.199  136.993  141.001
 fft_wrap_pw1pw2                   2357  9.9    0.024    0.026  134.064  138.086
 fft_wrap_pw1pw2_150               1070 10.2    8.360    8.509  125.442  129.820
 fft3d_ps                          2357 11.9   61.556   68.520  101.594  106.160
 qs_vxc_create                      212  8.0    0.004    0.005   85.477   87.106
 xc_vxc_pw_create                   212  9.0    1.770    1.913   85.472   87.101
 density_rs2pw                      217  7.0    0.014    0.016   75.418   83.929
 gspace_mixing                      207  5.0    0.809    0.840   83.020   83.020
 xc_rho_set_and_dset_create         212 10.0    2.051    2.110   67.759   69.984
 broyden_mixing                     207  6.0   55.094   55.326   55.673   55.823
 xc_functional_eval                 212 11.0    0.002    0.003   51.202   54.569
 pbe_lda_eval                       212 12.0   51.200   54.566   51.200   54.566
 rs_pw_transfer                    1731  9.5    0.025    0.028   38.354   48.195
 potential_pw2rs                    212 10.0    0.049    0.052   47.499   47.568
 -------------------------------------------------------------------------------

 The number of warnings for this run is : 6
 
 -------------------------------------------------------------------------------
  **** **** ******  **  PROGRAM ENDED AT                 2025-06-03 17:03:18.316
 ***** ** ***  *** **   PROGRAM RAN ON                                sebnode045
 **    ****   ******    PROGRAM RAN BY                                    luehrs
 ***** **    ** ** **   PROGRAM PROCESS ID                               1307960
  **** **  *******  **  PROGRAM STOPPED IN /home/luehrs/PhD/Sodium_batteries/Sod
                                           ium-graphene-interlayer/AA_Interlayer
                                           /Zig_Zag_3
