 DBCSR| CPU Multiplication driver                                           BLAS (U)
 DBCSR| Multrec recursion limit                                              512 (U)
 DBCSR| Multiplication stack size                                           1000 (D)
 DBCSR| Maximum elements for images                                    UNLIMITED (U)
 DBCSR| Multiplicative factor virtual images                                   1 (U)
 DBCSR| Use multiplication densification                                       T (D)
 DBCSR| Multiplication size stacks                                             3 (U)
 DBCSR| Use memory pool for CPU allocation                                     F (U)
 DBCSR| Number of 3D layers                                               SINGLE (U)
 DBCSR| Use MPI memory allocation                                              F (U)
 DBCSR| Use RMA algorithm                                                      F (U)
 DBCSR| Use Communication thread                                               T (U)
 DBCSR| Communication thread load                                             87 (D)
 DBCSR| MPI: My process id                                                     0
 DBCSR| MPI: Number of processes                                              16
 DBCSR| OMP: Current number of threads                                         1
 DBCSR| OMP: Max number of threads                                             1
 DBCSR| Split modifier for TAS multiplication algorithm                  1.0E+00 (U)


  **** **** ******  **  PROGRAM STARTED AT               2025-03-19 16:25:16.422
 ***** ** ***  *** **   PROGRAM STARTED ON                            sebnode133
 **    ****   ******    PROGRAM STARTED BY                                luehrs
 ***** **    ** ** **   PROGRAM PROCESS ID                               1323001
  **** **  *******  **  PROGRAM STARTED IN /home/luehrs/PhD/Sodium_batteries/Sod
                                           ium-graphene-curvature/Curved_surface
                                           _concave/Zig-Zag3

 CP2K| version string:                                       CP2K version 2023.1
 CP2K| source code revision number:                                  git:b888bd8
 CP2K| cp2kflags: omp libint fftw3 libxc elpa parallel scalapack spglib         
 CP2K| is freely available from                            https://www.cp2k.org/
 CP2K| Program compiled at                          Tue Jan 10 19:52:03 UTC 2023
 CP2K| Program compiled on                                            x86-ubc-01
 CP2K| Program compiled for                                Linux-x86_64-gfortran
 CP2K| Data directory path                                       /usr/share/cp2k
 CP2K| Input file name                                            input.BSSE.inp

 GLOBAL| Force Environment number                                              1
 GLOBAL| Basis set file name                                      ./BASIS_MOLOPT
 GLOBAL| Potential file name                                    ./GTH_POTENTIALS
 GLOBAL| MM Potential file name                                     MM_POTENTIAL
 GLOBAL| Coordinate file name                           coords_sur_3_relaxed.xyz
 GLOBAL| Method name                                                        CP2K
 GLOBAL| Project name                                            curv_sur_3_BSSE
 GLOBAL| Run type                                                           BSSE
 GLOBAL| FFT library                                                       FFTW3
 GLOBAL| Diagonalization library                                            ELPA
 GLOBAL| DGEMM library                                                      BLAS
 GLOBAL| Minimum number of eigenvectors for ELPA usage                        16
 GLOBAL| Orthonormality check for eigenvectors                          DISABLED
 GLOBAL| Matrix multiplication library                                 ScaLAPACK
 GLOBAL| All-to-all communication in single precision                          F
 GLOBAL| FFTs using library dependent lengths                                  F
 GLOBAL| Grid backend                                                       AUTO
 GLOBAL| Global print level                                                  LOW
 GLOBAL| MPI I/O enabled                                                       T
 GLOBAL| Total number of message passing processes                            16
 GLOBAL| Number of threads for this process                                    1
 GLOBAL| This output is from process                                           0
 GLOBAL| Stack size for threads created by OpenMP (OMP_STACKSIZE)        default
 GLOBAL| CPU model name                          AMD EPYC 7513 32-Core Processor

 MEMORY| system memory details [Kb]
 MEMORY|                        rank 0           min           max       average
 MEMORY| MemTotal            131828104     131828104     131828104     131828104
 MEMORY| MemFree             128042644     128042644     128042644     128042644
 MEMORY| Buffers                 24848         24848         24848         24848
 MEMORY| Cached                 298164        298164        298164        298164
 MEMORY| Slab                   788432        788432        788432        788432
 MEMORY| SReclaimable           149504        149504        149504        149504
 MEMORY| MemLikelyFree       128515160     128515160     128515160     128515160


 GENERATE|  Preliminary Number of Bonds generated:                             0
 GENERATE|  Achieved consistency in connectivity generation.

 *******************************************************************************
 *******************************************************************************
 **                                                                           **
 **     #####                         ##              ##                      **
 **    ##   ##            ##          ##              ##                      **
 **   ##     ##                       ##            ######                    **
 **   ##     ##  ##   ##  ##   #####  ##  ##   ####   ##    #####    #####    **
 **   ##     ##  ##   ##  ##  ##      ## ##   ##      ##   ##   ##  ##   ##   **
 **   ##  ## ##  ##   ##  ##  ##      ####     ###    ##   ######   ######    **
 **    ##  ###   ##   ##  ##  ##      ## ##      ##   ##   ##       ##        **
 **     #######   #####   ##   #####  ##  ##  ####    ##    #####   ##        **
 **           ##                                                    ##        **
 **                                                                           **
 **                                                ... make the atoms dance   **
 **                                                                           **
 **            Copyright (C) by CP2K developers group (2000-2022)             **
 **                      J. Chem. Phys. 152, 194103 (2020)                    **
 **                                                                           **
 *******************************************************************************


 TOTAL NUMBERS AND MAXIMUM NUMBERS

  Total number of            - Atomic kinds:                                   2
                             - Atoms:                                        225
                             - Shell sets:                                   225
                             - Shells:                                      1125
                             - Primitive Cartesian functions:               1127
                             - Cartesian basis functions:                   3145
                             - Spherical basis functions:                   2921

  Maximum angular momentum of- Orbital basis functions:                        2
                             - Local part of the GTH pseudopotential:          2
                             - Non-local part of the GTH pseudopotential:      1


 SCF PARAMETERS         Density guess:                                    ATOMIC
                        --------------------------------------------------------
                        max_scf:                                             300
                        max_scf_history:                                       0
                        max_diis:                                              4
                        --------------------------------------------------------
                        eps_scf:                                        3.00E-07
                        eps_scf_history:                                0.00E+00
                        eps_diis:                                       1.00E-01
                        eps_eigval:                                     1.00E-05
                        --------------------------------------------------------
                        level_shift [a.u.]:                             0.000000
                        added MOs                                       100    0
                        --------------------------------------------------------
                        Mixing method:                            BROYDEN_MIXING
                                                charge density mixing in g-space
                        --------------------------------------------------------
                        Smear method:                                FERMI_DIRAC
                        Electronic temperature [K]:                        300.0
                        Electronic temperature [a.u.]:                  9.50E-04
                        Accuracy threshold:                             1.00E-10
                        --------------------------------------------------------
                        Outer loop SCF in use 
                        No variables optimised in outer loop
                        eps_scf                                         1.00E-06
                        max_scf                                              300
                        DIIS optimization
                        DIIS buffer length                                     3
                        step_size                                       5.00E-01

 -------------------------------------------------------------------------------
 -                                                                             -
 -  BSSE CALCULATION         FRAGMENT CONF: 10        FRAGMENT SUBCONF: 10     -
 -                           CHARGE =     0           MULTIPLICITY =     0     -
 -                                                                             -
 -                 ATOM INDEX                              ATOM NAME           -
 -                 ----------                              ---------           -
 -                      1                                   C                  -
 -                      2                                   C                  -
 -                      3                                   C                  -
 -                      4                                   C                  -
 -                      5                                   C                  -
 -                      6                                   C                  -
 -                      7                                   C                  -
 -                      8                                   C                  -
 -                      9                                   C                  -
 -                     10                                   C                  -
 -                     11                                   C                  -
 -                     12                                   C                  -
 -                     13                                   C                  -
 -                     14                                   C                  -
 -                     15                                   C                  -
 -                     16                                   C                  -
 -                     17                                   C                  -
 -                     18                                   C                  -
 -                     19                                   C                  -
 -                     20                                   C                  -
 -                     21                                   C                  -
 -                     22                                   C                  -
 -                     23                                   C                  -
 -                     24                                   C                  -
 -                     25                                   C                  -
 -                     26                                   C                  -
 -                     27                                   C                  -
 -                     28                                   C                  -
 -                     29                                   C                  -
 -                     30                                   C                  -
 -                     31                                   C                  -
 -                     32                                   C                  -
 -                     33                                   C                  -
 -                     34                                   C                  -
 -                     35                                   C                  -
 -                     36                                   C                  -
 -                     37                                   C                  -
 -                     38                                   C                  -
 -                     39                                   C                  -
 -                     40                                   C                  -
 -                     41                                   C                  -
 -                     42                                   C                  -
 -                     43                                   C                  -
 -                     44                                   C                  -
 -                     45                                   C                  -
 -                     46                                   C                  -
 -                     47                                   C                  -
 -                     48                                   C                  -
 -                     49                                   C                  -
 -                     50                                   C                  -
 -                     51                                   C                  -
 -                     52                                   C                  -
 -                     53                                   C                  -
 -                     54                                   C                  -
 -                     55                                   C                  -
 -                     56                                   C                  -
 -                     57                                   C                  -
 -                     58                                   C                  -
 -                     59                                   C                  -
 -                     60                                   C                  -
 -                     61                                   C                  -
 -                     62                                   C                  -
 -                     63                                   C                  -
 -                     64                                   C                  -
 -                     65                                   C                  -
 -                     66                                   C                  -
 -                     67                                   C                  -
 -                     68                                   C                  -
 -                     69                                   C                  -
 -                     70                                   C                  -
 -                     71                                   C                  -
 -                     72                                   C                  -
 -                     73                                   C                  -
 -                     74                                   C                  -
 -                     75                                   C                  -
 -                     76                                   C                  -
 -                     77                                   C                  -
 -                     78                                   C                  -
 -                     79                                   C                  -
 -                     80                                   C                  -
 -                     81                                   C                  -
 -                     82                                   C                  -
 -                     83                                   C                  -
 -                     84                                   C                  -
 -                     85                                   C                  -
 -                     86                                   C                  -
 -                     87                                   C                  -
 -                     88                                   C                  -
 -                     89                                   C                  -
 -                     90                                   C                  -
 -                     91                                   C                  -
 -                     92                                   C                  -
 -                     93                                   C                  -
 -                     94                                   C                  -
 -                     95                                   C                  -
 -                     96                                   C                  -
 -                     97                                   C                  -
 -                     98                                   C                  -
 -                     99                                   C                  -
 -                    100                                   C                  -
 -                    101                                   C                  -
 -                    102                                   C                  -
 -                    103                                   C                  -
 -                    104                                   C                  -
 -                    105                                   C                  -
 -                    106                                   C                  -
 -                    107                                   C                  -
 -                    108                                   C                  -
 -                    109                                   C                  -
 -                    110                                   C                  -
 -                    111                                   C                  -
 -                    112                                   C                  -
 -                    113                                   C                  -
 -                    114                                   C                  -
 -                    115                                   C                  -
 -                    116                                   C                  -
 -                    117                                   C                  -
 -                    118                                   C                  -
 -                    119                                   C                  -
 -                    120                                   C                  -
 -                    121                                   C                  -
 -                    122                                   C                  -
 -                    123                                   C                  -
 -                    124                                   C                  -
 -                    125                                   C                  -
 -                    126                                   C                  -
 -                    127                                   C                  -
 -                    128                                   C                  -
 -                    129                                   C                  -
 -                    130                                   C                  -
 -                    131                                   C                  -
 -                    132                                   C                  -
 -                    133                                   C                  -
 -                    134                                   C                  -
 -                    135                                   C                  -
 -                    136                                   C                  -
 -                    137                                   C                  -
 -                    138                                   C                  -
 -                    139                                   C                  -
 -                    140                                   C                  -
 -                    141                                   C                  -
 -                    142                                   C                  -
 -                    143                                   C                  -
 -                    144                                   C                  -
 -                    145                                   C                  -
 -                    146                                   C                  -
 -                    147                                   C                  -
 -                    148                                   C                  -
 -                    149                                   C                  -
 -                    150                                   C                  -
 -                    151                                   C                  -
 -                    152                                   C                  -
 -                    153                                   C                  -
 -                    154                                   C                  -
 -                    155                                   C                  -
 -                    156                                   C                  -
 -                    157                                   C                  -
 -                    158                                   C                  -
 -                    159                                   C                  -
 -                    160                                   C                  -
 -                    161                                   C                  -
 -                    162                                   C                  -
 -                    163                                   C                  -
 -                    164                                   C                  -
 -                    165                                   C                  -
 -                    166                                   C                  -
 -                    167                                   C                  -
 -                    168                                   C                  -
 -                    169                                   C                  -
 -                    170                                   C                  -
 -                    171                                   C                  -
 -                    172                                   C                  -
 -                    173                                   C                  -
 -                    174                                   C                  -
 -                    175                                   C                  -
 -                    176                                   C                  -
 -                    177                                   C                  -
 -                    178                                   C                  -
 -                    179                                   C                  -
 -                    180                                   C                  -
 -                    181                                   C                  -
 -                    182                                   C                  -
 -                    183                                   C                  -
 -                    184                                   C                  -
 -                    185                                   C                  -
 -                    186                                   C                  -
 -                    187                                   C                  -
 -                    188                                   C                  -
 -                    189                                   C                  -
 -                    190                                   C                  -
 -                    191                                   C                  -
 -                    192                                   C                  -
 -                    193                                   C                  -
 -                    194                                   C                  -
 -                    195                                   C                  -
 -                    196                                   C                  -
 -                    197                                   C                  -
 -                    198                                   C                  -
 -                    199                                   C                  -
 -                    200                                   C                  -
 -                    201                                   C                  -
 -                    202                                   C                  -
 -                    203                                   C                  -
 -                    204                                   C                  -
 -                    205                                   C                  -
 -                    206                                   C                  -
 -                    207                                   C                  -
 -                    208                                   C                  -
 -                    209                                   C                  -
 -                    210                                   C                  -
 -                    211                                   C                  -
 -                    212                                   C                  -
 -                    213                                   C                  -
 -                    214                                   C                  -
 -                    215                                   C                  -
 -                    216                                   C                  -
 -                    217                                   C                  -
 -                    218                                   C                  -
 -                    219                                   C                  -
 -                    220                                   C                  -
 -                    221                                   C                  -
 -                    222                                   C                  -
 -                    223                                   C                  -
 -                    224                                   C                  -
 -------------------------------------------------------------------------------

 *******************************************************************************
 *******************************************************************************
 **                                                                           **
 **     #####                         ##              ##                      **
 **    ##   ##            ##          ##              ##                      **
 **   ##     ##                       ##            ######                    **
 **   ##     ##  ##   ##  ##   #####  ##  ##   ####   ##    #####    #####    **
 **   ##     ##  ##   ##  ##  ##      ## ##   ##      ##   ##   ##  ##   ##   **
 **   ##  ## ##  ##   ##  ##  ##      ####     ###    ##   ######   ######    **
 **    ##  ###   ##   ##  ##  ##      ## ##      ##   ##   ##       ##        **
 **     #######   #####   ##   #####  ##  ##  ####    ##    #####   ##        **
 **           ##                                                    ##        **
 **                                                                           **
 **                                                ... make the atoms dance   **
 **                                                                           **
 **            Copyright (C) by CP2K developers group (2000-2022)             **
 **                      J. Chem. Phys. 152, 194103 (2020)                    **
 **                                                                           **
 *******************************************************************************


 TOTAL NUMBERS AND MAXIMUM NUMBERS

  Total number of            - Atomic kinds:                                   1
                             - Atoms:                                        224
                             - Shell sets:                                   224
                             - Shells:                                      1120
                             - Primitive Cartesian functions:               1120
                             - Cartesian basis functions:                   3136
                             - Spherical basis functions:                   2912

  Maximum angular momentum of- Orbital basis functions:                        2
                             - Local part of the GTH pseudopotential:          2
                             - Non-local part of the GTH pseudopotential:      0


 SCF PARAMETERS         Density guess:                                    ATOMIC
                        --------------------------------------------------------
                        max_scf:                                             300
                        max_scf_history:                                       0
                        max_diis:                                              4
                        --------------------------------------------------------
                        eps_scf:                                        3.00E-07
                        eps_scf_history:                                0.00E+00
                        eps_diis:                                       1.00E-01
                        eps_eigval:                                     1.00E-05
                        --------------------------------------------------------
                        level_shift [a.u.]:                             0.000000
                        added MOs                                       100    0
                        --------------------------------------------------------
                        Mixing method:                            BROYDEN_MIXING
                                                charge density mixing in g-space
                        --------------------------------------------------------
                        Smear method:                                FERMI_DIRAC
                        Electronic temperature [K]:                        300.0
                        Electronic temperature [a.u.]:                  9.50E-04
                        Accuracy threshold:                             1.00E-10
                        --------------------------------------------------------
                        Outer loop SCF in use 
                        No variables optimised in outer loop
                        eps_scf                                         1.00E-06
                        max_scf                                              300
                        DIIS optimization
                        DIIS buffer length                                     3
                        step_size                                       5.00E-01

 Number of electrons:                                                        896
 Number of occupied orbitals:                                                448
 Number of molecular orbitals:                                               548

 Number of orbital functions:                                               2912
 Number of independent orbital functions:                                   2912

 Extrapolation method: initial_guess


 SCF WAVEFUNCTION OPTIMIZATION

  Step     Update method      Time    Convergence         Total energy    Change
  ------------------------------------------------------------------------------
     1 NoMix/Diag. 0.10E+00    6.2     0.92855114     -1265.9121593170 -1.27E+03
     2 Broy./Diag. 0.10E+00    9.0     0.26359742     -1214.9946253192  5.09E+01
     3 Broy./Diag. 0.10E+00    9.2     0.05096028     -1222.9896793010 -8.00E+00
     4 Broy./Diag. 0.10E+00    9.3     0.14876035     -1255.9815089556 -3.30E+01
     5 Broy./Diag. 0.10E+00    9.4     0.12768495     -1269.1463072012 -1.32E+01
     6 Broy./Diag. 0.10E+00   15.1     0.08359928     -1270.0244906654 -8.78E-01
     7 Broy./Diag. 0.10E+00   15.9     0.03847276     -1270.7394853252 -7.15E-01
     8 Broy./Diag. 0.10E+00   16.2     0.01198564     -1271.6819603260 -9.42E-01
     9 Broy./Diag. 0.10E+00   40.0     0.00957597     -1272.1601729733 -4.78E-01
    10 Broy./Diag. 0.10E+00   47.4     0.01314543     -1272.5780135346 -4.18E-01
    11 Broy./Diag. 0.10E+00   47.7     0.00493302     -1272.7193181844 -1.41E-01
    12 Broy./Diag. 0.10E+00   48.1     0.00268577     -1273.0271956956 -3.08E-01
    13 Broy./Diag. 0.10E+00   48.0     0.00263463     -1273.2837986134 -2.57E-01
    14 Broy./Diag. 0.10E+00   44.2     0.00419732     -1273.4127999922 -1.29E-01
    15 Broy./Diag. 0.10E+00   47.3     0.00080185     -1273.4914809819 -7.87E-02
    16 Broy./Diag. 0.10E+00   45.0     0.00112930     -1273.4707109507  2.08E-02
    17 Broy./Diag. 0.10E+00   50.0     0.00233761     -1273.4555839786  1.51E-02
    18 Broy./Diag. 0.10E+00   49.2     0.00194279     -1273.5099943536 -5.44E-02
    19 Broy./Diag. 0.10E+00   47.4     0.00209133     -1273.5338882392 -2.39E-02
    20 Broy./Diag. 0.10E+00   48.6     0.00134366     -1273.5544980328 -2.06E-02
    21 Broy./Diag. 0.10E+00   49.8     0.00047129     -1273.5869961959 -3.25E-02
    22 Broy./Diag. 0.10E+00   45.8     0.00019771     -1273.6195103200 -3.25E-02
    23 Broy./Diag. 0.10E+00   48.9     0.00014060     -1273.6458137838 -2.63E-02
    24 Broy./Diag. 0.10E+00   50.4     0.00033124     -1273.6471084954 -1.29E-03
    25 Broy./Diag. 0.10E+00   48.4     0.00019573     -1273.6427937975  4.31E-03
    26 Broy./Diag. 0.10E+00   46.8     0.00020272     -1273.6368986807  5.90E-03
    27 Broy./Diag. 0.10E+00   48.4     0.00028741     -1273.6284236983  8.47E-03
    28 Broy./Diag. 0.10E+00   46.8     0.00033089     -1273.6272934629  1.13E-03
    29 Broy./Diag. 0.10E+00   50.9     0.00055854     -1273.6366635973 -9.37E-03
    30 Broy./Diag. 0.10E+00   51.1     0.00048188     -1273.6435977444 -6.93E-03
    31 Broy./Diag. 0.10E+00   46.7     0.00015325     -1273.6463051775 -2.71E-03
    32 Broy./Diag. 0.10E+00   48.5     0.00017303     -1273.6449244047  1.38E-03
    33 Broy./Diag. 0.10E+00   51.3     0.00014330     -1273.6435634387  1.36E-03
    34 Broy./Diag. 0.10E+00   47.3     0.00009674     -1273.6415868684  1.98E-03
    35 Broy./Diag. 0.10E+00   46.9     0.00014743     -1273.6439586183 -2.37E-03
    36 Broy./Diag. 0.10E+00   48.9     0.00020370     -1273.6459831582 -2.02E-03
    37 Broy./Diag. 0.10E+00   48.0     0.00009722     -1273.6488357099 -2.85E-03
    38 Broy./Diag. 0.10E+00   47.8     0.00002377     -1273.6511731862 -2.34E-03
    39 Broy./Diag. 0.10E+00   53.0     0.00009044     -1273.6525682280 -1.40E-03
    40 Broy./Diag. 0.10E+00   50.6     0.00010735     -1273.6544350585 -1.87E-03
    41 Broy./Diag. 0.10E+00   49.4     0.00004590     -1273.6554015567 -9.66E-04
    42 Broy./Diag. 0.10E+00   50.2     0.00005335     -1273.6569120628 -1.51E-03
    43 Broy./Diag. 0.10E+00   46.6     0.00004781     -1273.6583973213 -1.49E-03
    44 Broy./Diag. 0.10E+00   46.3     0.00001419     -1273.6588563239 -4.59E-04
    45 Broy./Diag. 0.10E+00   48.3     0.00001349     -1273.6587209794  1.35E-04
    46 Broy./Diag. 0.10E+00   47.2     0.00004057     -1273.6581500713  5.71E-04
    47 Broy./Diag. 0.10E+00   44.6     0.00003752     -1273.6573857175  7.64E-04
    48 Broy./Diag. 0.10E+00   51.7     0.00001692     -1273.6568065292  5.79E-04
    49 Broy./Diag. 0.10E+00   48.7     0.00001059     -1273.6565780075  2.29E-04
    50 Broy./Diag. 0.10E+00   48.0     0.00001318     -1273.6564513041  1.27E-04
    51 Broy./Diag. 0.10E+00   50.6     0.00001933     -1273.6563118595  1.39E-04
    52 Broy./Diag. 0.10E+00   49.1     0.00001586     -1273.6563322507 -2.04E-05
    53 Broy./Diag. 0.10E+00   51.5     0.00001590     -1273.6564232868 -9.10E-05
    54 Broy./Diag. 0.10E+00   49.2     0.00001031     -1273.6567227652 -2.99E-04
    55 Broy./Diag. 0.10E+00   51.0     0.00000458     -1273.6570550338 -3.32E-04
    56 Broy./Diag. 0.10E+00   49.3     0.00000833     -1273.6573083452 -2.53E-04
    57 Broy./Diag. 0.10E+00   48.0     0.00000873     -1273.6575237164 -2.15E-04
    58 Broy./Diag. 0.10E+00   49.8     0.00000484     -1273.6576601005 -1.36E-04
    59 Broy./Diag. 0.10E+00   47.9     0.00000201     -1273.6576960670 -3.60E-05
    60 Broy./Diag. 0.10E+00   50.8     0.00000407     -1273.6576918435  4.22E-06
    61 Broy./Diag. 0.10E+00   47.2     0.00000453     -1273.6576470758  4.48E-05
    62 Broy./Diag. 0.10E+00   48.3     0.00000300     -1273.6576183995  2.87E-05
    63 Broy./Diag. 0.10E+00   47.5     0.00000238     -1273.6575978393  2.06E-05
    64 Broy./Diag. 0.10E+00   48.7     0.00000200     -1273.6575509466  4.69E-05
    65 Broy./Diag. 0.10E+00   49.6     0.00000102     -1273.6575146247  3.63E-05
    66 Broy./Diag. 0.10E+00   49.7     0.00000210     -1273.6574806647  3.40E-05
    67 Broy./Diag. 0.10E+00   49.2     0.00000259     -1273.6574566839  2.40E-05
    68 Broy./Diag. 0.10E+00   44.1     0.00000212     -1273.6574611365 -4.45E-06
    69 Broy./Diag. 0.10E+00   53.9     0.00000155     -1273.6575033562 -4.22E-05
    70 Broy./Diag. 0.10E+00   53.0     0.00000156     -1273.6575427982 -3.94E-05
    71 Broy./Diag. 0.10E+00   52.8     0.00000127     -1273.6575676944 -2.49E-05
    72 Broy./Diag. 0.10E+00   48.1     0.00000073     -1273.6575829749 -1.53E-05
    73 Broy./Diag. 0.10E+00   49.6     0.00000085     -1273.6575853230 -2.35E-06
    74 Broy./Diag. 0.10E+00   50.6     0.00000063     -1273.6575947149 -9.39E-06
    75 Broy./Diag. 0.10E+00   52.6     0.00000025     -1273.6575994268 -4.71E-06

  *** SCF run converged in    75 steps ***


  Electronic density on regular grids:       -896.0000000000        0.0000000000
  Core density on regular grids:              895.9999999992       -0.0000000008
  Total charge density on r-space grids:       -0.0000000007
  Total charge density g-space grids:          -0.0000000007

  Overlap energy of the core charge distribution:               0.00005632564276
  Self energy of the core charge distribution:              -2987.04177559540722
  Core Hamiltonian energy:                                    937.74498371287325
  Hartree energy:                                            1167.03334637293665
  Exchange-correlation energy:                               -391.12778182923921
  Dispersion energy:                                           -0.25986067328793
  Electronic entropic energy:                                  -0.00656773959893
  Fermi energy:                                                -0.15103835500878

  Total energy:                                             -1273.65759942676164

  outer SCF iter =    1 RMS gradient =   0.25E-06 energy =      -1273.6575994268
  outer SCF loop converged in   1 iterations or   75 steps


 *** WARNING in qs_loc_utils.F:1500 :: User requested the calculation of ***
 *** the localized wavefunction but the section LOCALIZE was not         ***
 *** specified. Localization will not be performed!                      ***


 -------------------------------------------------------------------------------
 -                                                                             -
 -  BSSE CALCULATION         FRAGMENT CONF: 01        FRAGMENT SUBCONF: 01     -
 -                           CHARGE =     0           MULTIPLICITY =     0     -
 -                                                                             -
 -                 ATOM INDEX                              ATOM NAME           -
 -                 ----------                              ---------           -
 -                    225                                   Na                 -
 -------------------------------------------------------------------------------

 *******************************************************************************
 *******************************************************************************
 **                                                                           **
 **     #####                         ##              ##                      **
 **    ##   ##            ##          ##              ##                      **
 **   ##     ##                       ##            ######                    **
 **   ##     ##  ##   ##  ##   #####  ##  ##   ####   ##    #####    #####    **
 **   ##     ##  ##   ##  ##  ##      ## ##   ##      ##   ##   ##  ##   ##   **
 **   ##  ## ##  ##   ##  ##  ##      ####     ###    ##   ######   ######    **
 **    ##  ###   ##   ##  ##  ##      ## ##      ##   ##   ##       ##        **
 **     #######   #####   ##   #####  ##  ##  ####    ##    #####   ##        **
 **           ##                                                    ##        **
 **                                                                           **
 **                                                ... make the atoms dance   **
 **                                                                           **
 **            Copyright (C) by CP2K developers group (2000-2022)             **
 **                      J. Chem. Phys. 152, 194103 (2020)                    **
 **                                                                           **
 *******************************************************************************

 *** WARNING in qs_environment.F:1486 :: More added MOs requested than     ***
 *** available. The full set of unoccupied MOs will be used. Use           ***
 *** 'ADDED_MOS -1' to always use all available MOs and to get rid of this ***
 *** warning.                                                              ***



 TOTAL NUMBERS AND MAXIMUM NUMBERS

  Total number of            - Atomic kinds:                                   1
                             - Atoms:                                          1
                             - Shell sets:                                     1
                             - Shells:                                         5
                             - Primitive Cartesian functions:                  7
                             - Cartesian basis functions:                      9
                             - Spherical basis functions:                      9

  Maximum angular momentum of- Orbital basis functions:                        1
                             - Local part of the GTH pseudopotential:          2
                             - Non-local part of the GTH pseudopotential:      1


 SCF PARAMETERS         Density guess:                                    ATOMIC
                        --------------------------------------------------------
                        max_scf:                                             300
                        max_scf_history:                                       0
                        max_diis:                                              4
                        --------------------------------------------------------
                        eps_scf:                                        3.00E-07
                        eps_scf_history:                                0.00E+00
                        eps_diis:                                       1.00E-01
                        eps_eigval:                                     1.00E-05
                        --------------------------------------------------------
                        level_shift [a.u.]:                             0.000000
                        added MOs                                         4    0
                        --------------------------------------------------------
                        Mixing method:                            BROYDEN_MIXING
                                                charge density mixing in g-space
                        --------------------------------------------------------
                        Smear method:                                FERMI_DIRAC
                        Electronic temperature [K]:                        300.0
                        Electronic temperature [a.u.]:                  9.50E-04
                        Accuracy threshold:                             1.00E-10
                        --------------------------------------------------------
                        Outer loop SCF in use 
                        No variables optimised in outer loop
                        eps_scf                                         1.00E-06
                        max_scf                                              300
                        DIIS optimization
                        DIIS buffer length                                     3
                        step_size                                       5.00E-01

 Number of electrons:                                                          9
 Number of occupied orbitals:                                                  5
 Number of molecular orbitals:                                                 9

 Number of orbital functions:                                                  9
 Number of independent orbital functions:                                      9

 Extrapolation method: initial_guess


 SCF WAVEFUNCTION OPTIMIZATION

  Step     Update method      Time    Convergence         Total energy    Change
  ------------------------------------------------------------------------------
     1 NoMix/Diag. 0.10E+00    4.7     0.02077846       -47.1632621696 -4.72E+01
     2 Broy./Diag. 0.10E+00    8.3     0.00009672       -47.1203914743  4.29E-02
     3 Broy./Diag. 0.10E+00   10.3     0.00099686       -47.1612621091 -4.09E-02
     4 Broy./Diag. 0.10E+00    9.0     0.00002400       -47.1689308126 -7.67E-03
     5 Broy./Diag. 0.10E+00   11.1     0.00025247       -47.1689675174 -3.67E-05
     6 Broy./Diag. 0.10E+00    7.5     0.00000809       -47.1690913284 -1.24E-04
     7 Broy./Diag. 0.10E+00    9.3     0.00014090       -47.1674099241  1.68E-03
     8 Broy./Diag. 0.10E+00    9.2     0.00001764       -47.1664625262  9.47E-04
     9 Broy./Diag. 0.10E+00   10.1     0.00018660       -47.1658086250  6.54E-04
    10 Broy./Diag. 0.10E+00   11.5     0.00000972       -47.1654227263  3.86E-04
    11 Broy./Diag. 0.10E+00    8.9     0.00009319       -47.1652181357  2.05E-04
    12 Broy./Diag. 0.10E+00   10.1     0.00000301       -47.1651557578  6.24E-05
    13 Broy./Diag. 0.10E+00    9.6     0.00000819       -47.1652521780 -9.64E-05
    14 Broy./Diag. 0.10E+00    8.0     0.00000082       -47.1652692891 -1.71E-05
    15 Broy./Diag. 0.10E+00    7.9     0.00001233       -47.1651078000  1.61E-04
    16 Broy./Diag. 0.10E+00   11.6     0.00000254       -47.1650788502  2.89E-05
    17 Broy./Diag. 0.10E+00   10.4     0.00000272       -47.1651160420 -3.72E-05
    18 Broy./Diag. 0.10E+00   10.5     0.00000203       -47.1651575913 -4.15E-05
    19 Broy./Diag. 0.10E+00    8.1     0.00000145       -47.1651757456 -1.82E-05
    20 Broy./Diag. 0.10E+00   10.7     0.00000259       -47.1651715312  4.21E-06
    21 Broy./Diag. 0.10E+00   10.2     0.00000267       -47.1651505402  2.10E-05
    22 Broy./Diag. 0.10E+00   10.3     0.00000451       -47.1651198004  3.07E-05
    23 Broy./Diag. 0.10E+00   12.9     0.00000311       -47.1650994377  2.04E-05
    24 Broy./Diag. 0.10E+00    8.5     0.00000121       -47.1650972708  2.17E-06
    25 Broy./Diag. 0.10E+00    7.9     0.00000028       -47.1651051452 -7.87E-06

  *** SCF run converged in    25 steps ***


  Electronic density on regular grids:         -9.0003209140       -0.0003209140
  Core density on regular grids:                9.0000000000       -0.0000000000
  Total charge density on r-space grids:       -0.0003209140
  Total charge density g-space grids:          -0.0003209140

  Overlap energy of the core charge distribution:               0.00000000000000
  Self energy of the core charge distribution:                -96.60649019442629
  Core Hamiltonian energy:                                     29.76189486592252
  Hartree energy:                                              26.72515706177930
  Exchange-correlation energy:                                 -7.04434920193839
  Dispersion energy:                                           -0.00000063510881
  Electronic entropic energy:                                  -0.00131704147593
  Fermi energy:                                                -0.09176731462918

  Total energy:                                               -47.16510514524759

  outer SCF iter =    1 RMS gradient =   0.28E-06 energy =        -47.1651051452
  outer SCF loop converged in   1 iterations or   25 steps


 *** WARNING in qs_loc_utils.F:1500 :: User requested the calculation of ***
 *** the localized wavefunction but the section LOCALIZE was not         ***
 *** specified. Localization will not be performed!                      ***


 -------------------------------------------------------------------------------
 -                                                                             -
 -  BSSE CALCULATION         FRAGMENT CONF: 11        FRAGMENT SUBCONF: 10     -
 -                           CHARGE =     0           MULTIPLICITY =     0     -
 -                                                                             -
 -                 ATOM INDEX                              ATOM NAME           -
 -                 ----------                              ---------           -
 -                      1                                   C                  -
 -                      2                                   C                  -
 -                      3                                   C                  -
 -                      4                                   C                  -
 -                      5                                   C                  -
 -                      6                                   C                  -
 -                      7                                   C                  -
 -                      8                                   C                  -
 -                      9                                   C                  -
 -                     10                                   C                  -
 -                     11                                   C                  -
 -                     12                                   C                  -
 -                     13                                   C                  -
 -                     14                                   C                  -
 -                     15                                   C                  -
 -                     16                                   C                  -
 -                     17                                   C                  -
 -                     18                                   C                  -
 -                     19                                   C                  -
 -                     20                                   C                  -
 -                     21                                   C                  -
 -                     22                                   C                  -
 -                     23                                   C                  -
 -                     24                                   C                  -
 -                     25                                   C                  -
 -                     26                                   C                  -
 -                     27                                   C                  -
 -                     28                                   C                  -
 -                     29                                   C                  -
 -                     30                                   C                  -
 -                     31                                   C                  -
 -                     32                                   C                  -
 -                     33                                   C                  -
 -                     34                                   C                  -
 -                     35                                   C                  -
 -                     36                                   C                  -
 -                     37                                   C                  -
 -                     38                                   C                  -
 -                     39                                   C                  -
 -                     40                                   C                  -
 -                     41                                   C                  -
 -                     42                                   C                  -
 -                     43                                   C                  -
 -                     44                                   C                  -
 -                     45                                   C                  -
 -                     46                                   C                  -
 -                     47                                   C                  -
 -                     48                                   C                  -
 -                     49                                   C                  -
 -                     50                                   C                  -
 -                     51                                   C                  -
 -                     52                                   C                  -
 -                     53                                   C                  -
 -                     54                                   C                  -
 -                     55                                   C                  -
 -                     56                                   C                  -
 -                     57                                   C                  -
 -                     58                                   C                  -
 -                     59                                   C                  -
 -                     60                                   C                  -
 -                     61                                   C                  -
 -                     62                                   C                  -
 -                     63                                   C                  -
 -                     64                                   C                  -
 -                     65                                   C                  -
 -                     66                                   C                  -
 -                     67                                   C                  -
 -                     68                                   C                  -
 -                     69                                   C                  -
 -                     70                                   C                  -
 -                     71                                   C                  -
 -                     72                                   C                  -
 -                     73                                   C                  -
 -                     74                                   C                  -
 -                     75                                   C                  -
 -                     76                                   C                  -
 -                     77                                   C                  -
 -                     78                                   C                  -
 -                     79                                   C                  -
 -                     80                                   C                  -
 -                     81                                   C                  -
 -                     82                                   C                  -
 -                     83                                   C                  -
 -                     84                                   C                  -
 -                     85                                   C                  -
 -                     86                                   C                  -
 -                     87                                   C                  -
 -                     88                                   C                  -
 -                     89                                   C                  -
 -                     90                                   C                  -
 -                     91                                   C                  -
 -                     92                                   C                  -
 -                     93                                   C                  -
 -                     94                                   C                  -
 -                     95                                   C                  -
 -                     96                                   C                  -
 -                     97                                   C                  -
 -                     98                                   C                  -
 -                     99                                   C                  -
 -                    100                                   C                  -
 -                    101                                   C                  -
 -                    102                                   C                  -
 -                    103                                   C                  -
 -                    104                                   C                  -
 -                    105                                   C                  -
 -                    106                                   C                  -
 -                    107                                   C                  -
 -                    108                                   C                  -
 -                    109                                   C                  -
 -                    110                                   C                  -
 -                    111                                   C                  -
 -                    112                                   C                  -
 -                    113                                   C                  -
 -                    114                                   C                  -
 -                    115                                   C                  -
 -                    116                                   C                  -
 -                    117                                   C                  -
 -                    118                                   C                  -
 -                    119                                   C                  -
 -                    120                                   C                  -
 -                    121                                   C                  -
 -                    122                                   C                  -
 -                    123                                   C                  -
 -                    124                                   C                  -
 -                    125                                   C                  -
 -                    126                                   C                  -
 -                    127                                   C                  -
 -                    128                                   C                  -
 -                    129                                   C                  -
 -                    130                                   C                  -
 -                    131                                   C                  -
 -                    132                                   C                  -
 -                    133                                   C                  -
 -                    134                                   C                  -
 -                    135                                   C                  -
 -                    136                                   C                  -
 -                    137                                   C                  -
 -                    138                                   C                  -
 -                    139                                   C                  -
 -                    140                                   C                  -
 -                    141                                   C                  -
 -                    142                                   C                  -
 -                    143                                   C                  -
 -                    144                                   C                  -
 -                    145                                   C                  -
 -                    146                                   C                  -
 -                    147                                   C                  -
 -                    148                                   C                  -
 -                    149                                   C                  -
 -                    150                                   C                  -
 -                    151                                   C                  -
 -                    152                                   C                  -
 -                    153                                   C                  -
 -                    154                                   C                  -
 -                    155                                   C                  -
 -                    156                                   C                  -
 -                    157                                   C                  -
 -                    158                                   C                  -
 -                    159                                   C                  -
 -                    160                                   C                  -
 -                    161                                   C                  -
 -                    162                                   C                  -
 -                    163                                   C                  -
 -                    164                                   C                  -
 -                    165                                   C                  -
 -                    166                                   C                  -
 -                    167                                   C                  -
 -                    168                                   C                  -
 -                    169                                   C                  -
 -                    170                                   C                  -
 -                    171                                   C                  -
 -                    172                                   C                  -
 -                    173                                   C                  -
 -                    174                                   C                  -
 -                    175                                   C                  -
 -                    176                                   C                  -
 -                    177                                   C                  -
 -                    178                                   C                  -
 -                    179                                   C                  -
 -                    180                                   C                  -
 -                    181                                   C                  -
 -                    182                                   C                  -
 -                    183                                   C                  -
 -                    184                                   C                  -
 -                    185                                   C                  -
 -                    186                                   C                  -
 -                    187                                   C                  -
 -                    188                                   C                  -
 -                    189                                   C                  -
 -                    190                                   C                  -
 -                    191                                   C                  -
 -                    192                                   C                  -
 -                    193                                   C                  -
 -                    194                                   C                  -
 -                    195                                   C                  -
 -                    196                                   C                  -
 -                    197                                   C                  -
 -                    198                                   C                  -
 -                    199                                   C                  -
 -                    200                                   C                  -
 -                    201                                   C                  -
 -                    202                                   C                  -
 -                    203                                   C                  -
 -                    204                                   C                  -
 -                    205                                   C                  -
 -                    206                                   C                  -
 -                    207                                   C                  -
 -                    208                                   C                  -
 -                    209                                   C                  -
 -                    210                                   C                  -
 -                    211                                   C                  -
 -                    212                                   C                  -
 -                    213                                   C                  -
 -                    214                                   C                  -
 -                    215                                   C                  -
 -                    216                                   C                  -
 -                    217                                   C                  -
 -                    218                                   C                  -
 -                    219                                   C                  -
 -                    220                                   C                  -
 -                    221                                   C                  -
 -                    222                                   C                  -
 -                    223                                   C                  -
 -                    224                                   C                  -
 -                    225                                   Na_ghost           -
 -------------------------------------------------------------------------------

 *******************************************************************************
 *******************************************************************************
 **                                                                           **
 **     #####                         ##              ##                      **
 **    ##   ##            ##          ##              ##                      **
 **   ##     ##                       ##            ######                    **
 **   ##     ##  ##   ##  ##   #####  ##  ##   ####   ##    #####    #####    **
 **   ##     ##  ##   ##  ##  ##      ## ##   ##      ##   ##   ##  ##   ##   **
 **   ##  ## ##  ##   ##  ##  ##      ####     ###    ##   ######   ######    **
 **    ##  ###   ##   ##  ##  ##      ## ##      ##   ##   ##       ##        **
 **     #######   #####   ##   #####  ##  ##  ####    ##    #####   ##        **
 **           ##                                                    ##        **
 **                                                                           **
 **                                                ... make the atoms dance   **
 **                                                                           **
 **            Copyright (C) by CP2K developers group (2000-2022)             **
 **                      J. Chem. Phys. 152, 194103 (2020)                    **
 **                                                                           **
 *******************************************************************************


 TOTAL NUMBERS AND MAXIMUM NUMBERS

  Total number of            - Atomic kinds:                                   2
                             - Atoms:                                        225
                             - Shell sets:                                   225
                             - Shells:                                      1125
                             - Primitive Cartesian functions:               1127
                             - Cartesian basis functions:                   3145
                             - Spherical basis functions:                   2921

  Maximum angular momentum of- Orbital basis functions:                        2
                             - Local part of the GTH pseudopotential:          2
                             - Non-local part of the GTH pseudopotential:      0


 SCF PARAMETERS         Density guess:                                    ATOMIC
                        --------------------------------------------------------
                        max_scf:                                             300
                        max_scf_history:                                       0
                        max_diis:                                              4
                        --------------------------------------------------------
                        eps_scf:                                        3.00E-07
                        eps_scf_history:                                0.00E+00
                        eps_diis:                                       1.00E-01
                        eps_eigval:                                     1.00E-05
                        --------------------------------------------------------
                        level_shift [a.u.]:                             0.000000
                        added MOs                                       100    0
                        --------------------------------------------------------
                        Mixing method:                            BROYDEN_MIXING
                                                charge density mixing in g-space
                        --------------------------------------------------------
                        Smear method:                                FERMI_DIRAC
                        Electronic temperature [K]:                        300.0
                        Electronic temperature [a.u.]:                  9.50E-04
                        Accuracy threshold:                             1.00E-10
                        --------------------------------------------------------
                        Outer loop SCF in use 
                        No variables optimised in outer loop
                        eps_scf                                         1.00E-06
                        max_scf                                              300
                        DIIS optimization
                        DIIS buffer length                                     3
                        step_size                                       5.00E-01

 Number of electrons:                                                        896
 Number of occupied orbitals:                                                448
 Number of molecular orbitals:                                               548

 Number of orbital functions:                                               2921
 Number of independent orbital functions:                                   2921

 Extrapolation method: initial_guess


 SCF WAVEFUNCTION OPTIMIZATION

  Step     Update method      Time    Convergence         Total energy    Change
  ------------------------------------------------------------------------------
     1 NoMix/Diag. 0.10E+00   41.4     0.92855600     -1265.9121593170 -1.27E+03
     2 Broy./Diag. 0.10E+00   48.1     0.26363781     -1214.9858571136  5.09E+01
     3 Broy./Diag. 0.10E+00   46.4     0.05144194     -1222.9792597234 -7.99E+00
     4 Broy./Diag. 0.10E+00   46.7     0.14812398     -1255.9697545750 -3.30E+01
     5 Broy./Diag. 0.10E+00   49.2     0.12699575     -1269.1432645947 -1.32E+01
     6 Broy./Diag. 0.10E+00   50.1     0.08395140     -1270.0220542571 -8.79E-01
     7 Broy./Diag. 0.10E+00   58.1     0.03908942     -1270.7363855440 -7.14E-01
     8 Broy./Diag. 0.10E+00   54.7     0.01166770     -1271.6790718905 -9.43E-01
     9 Broy./Diag. 0.10E+00   53.0     0.01025329     -1272.1579006808 -4.79E-01
    10 Broy./Diag. 0.10E+00   54.8     0.01308130     -1272.5771237200 -4.19E-01
    11 Broy./Diag. 0.10E+00   50.6     0.00493851     -1272.7180441291 -1.41E-01
    12 Broy./Diag. 0.10E+00   49.7     0.00267390     -1273.0250659089 -3.07E-01
    13 Broy./Diag. 0.10E+00   44.4     0.00260191     -1273.2830295474 -2.58E-01
    14 Broy./Diag. 0.10E+00   50.8     0.00564196     -1273.4035730460 -1.21E-01
    15 Broy./Diag. 0.10E+00   51.0     0.00143638     -1273.4778861130 -7.43E-02
    16 Broy./Diag. 0.10E+00   48.4     0.00152649     -1273.4813308015 -3.44E-03
    17 Broy./Diag. 0.10E+00   49.3     0.00406976     -1273.4762993305  5.03E-03
    18 Broy./Diag. 0.10E+00   53.5     0.00350551     -1273.5101571877 -3.39E-02
    19 Broy./Diag. 0.10E+00   56.0     0.00141111     -1273.5301045328 -1.99E-02
    20 Broy./Diag. 0.10E+00   57.1     0.00057886     -1273.5419268967 -1.18E-02
    21 Broy./Diag. 0.10E+00   53.8     0.00106829     -1273.5791658368 -3.72E-02
    22 Broy./Diag. 0.10E+00   49.3     0.00027587     -1273.6236109784 -4.44E-02
    23 Broy./Diag. 0.10E+00   45.7     0.00030547     -1273.6440988429 -2.05E-02
    24 Broy./Diag. 0.10E+00   52.5     0.00045390     -1273.6443369421 -2.38E-04
    25 Broy./Diag. 0.10E+00   46.8     0.00062349     -1273.6310348832  1.33E-02
    26 Broy./Diag. 0.10E+00   50.6     0.00023797     -1273.6294768602  1.56E-03
    27 Broy./Diag. 0.10E+00   47.1     0.00064469     -1273.6335308148 -4.05E-03
    28 Broy./Diag. 0.10E+00   49.0     0.00059830     -1273.6394051881 -5.87E-03
    29 Broy./Diag. 0.10E+00   46.4     0.00042242     -1273.6455250102 -6.12E-03
    30 Broy./Diag. 0.10E+00   47.0     0.00025048     -1273.6507389255 -5.21E-03
    31 Broy./Diag. 0.10E+00   50.3     0.00023933     -1273.6564778422 -5.74E-03
    32 Broy./Diag. 0.10E+00   47.8     0.00018864     -1273.6616457066 -5.17E-03
    33 Broy./Diag. 0.10E+00   51.2     0.00038412     -1273.6650104455 -3.36E-03
    34 Broy./Diag. 0.10E+00   50.0     0.00034997     -1273.6669272026 -1.92E-03
    35 Broy./Diag. 0.10E+00   49.6     0.00020482     -1273.6649988607  1.93E-03
    36 Broy./Diag. 0.10E+00   50.0     0.00018119     -1273.6592158672  5.78E-03
    37 Broy./Diag. 0.10E+00   50.6     0.00011924     -1273.6554100739  3.81E-03
    38 Broy./Diag. 0.10E+00   48.8     0.00019349     -1273.6545251887  8.85E-04
    39 Broy./Diag. 0.10E+00   49.5     0.00017670     -1273.6534884644  1.04E-03
    40 Broy./Diag. 0.10E+00   50.0     0.00012910     -1273.6531324248  3.56E-04
    41 Broy./Diag. 0.10E+00   49.8     0.00005792     -1273.6529740985  1.58E-04
    42 Broy./Diag. 0.10E+00   52.4     0.00002953     -1273.6528119566  1.62E-04
    43 Broy./Diag. 0.10E+00   50.4     0.00005397     -1273.6528299796 -1.80E-05
    44 Broy./Diag. 0.10E+00   49.5     0.00005126     -1273.6529111118 -8.11E-05
    45 Broy./Diag. 0.10E+00   48.0     0.00003839     -1273.6535420562 -6.31E-04
    46 Broy./Diag. 0.10E+00   51.7     0.00003036     -1273.6547901777 -1.25E-03
    47 Broy./Diag. 0.10E+00   49.9     0.00002914     -1273.6555936597 -8.03E-04
    48 Broy./Diag. 0.10E+00   49.1     0.00006592     -1273.6559515029 -3.58E-04
    49 Broy./Diag. 0.10E+00   47.8     0.00006971     -1273.6563485690 -3.97E-04
    50 Broy./Diag. 0.10E+00   50.4     0.00003493     -1273.6566861369 -3.38E-04
    51 Broy./Diag. 0.10E+00   49.1     0.00002250     -1273.6569122908 -2.26E-04
    52 Broy./Diag. 0.10E+00   52.7     0.00001839     -1273.6571930024 -2.81E-04
[...]
    91 Broy./Diag. 0.10E+00   58.2     0.00000113     -1320.8702046524 -1.55E-05
    92 Broy./Diag. 0.10E+00   53.5     0.00000093     -1320.8702115300 -6.88E-06
    93 Broy./Diag. 0.10E+00   57.6     0.00000073     -1320.8702165693 -5.04E-06
    94 Broy./Diag. 0.10E+00   52.8     0.00000036     -1320.8702214278 -4.86E-06
    95 Broy./Diag. 0.10E+00   56.5     0.00000045     -1320.8702231136 -1.69E-06
    96 Broy./Diag. 0.10E+00   59.2     0.00000053     -1320.8702223904  7.23E-07
    97 Broy./Diag. 0.10E+00   65.7     0.00000040     -1320.8702191069  3.28E-06
    98 Broy./Diag. 0.10E+00   53.0     0.00000026     -1320.8702139208  5.19E-06

  *** SCF run converged in    98 steps ***


  Electronic density on regular grids:       -905.0003226878       -0.0003226878
  Core density on regular grids:              904.9999999992       -0.0000000008
  Total charge density on r-space grids:       -0.0003226886
  Total charge density g-space grids:          -0.0003226886

  Overlap energy of the core charge distribution:               0.00005632564276
  Self energy of the core charge distribution:              -3083.64826578983366
  Core Hamiltonian energy:                                    967.91710454696386
  Hartree energy:                                            1193.56537233873837
  Exchange-correlation energy:                               -398.43268992836261
  Dispersion energy:                                           -0.26422173934548
  Electronic entropic energy:                                  -0.00756967713644
  Fermi energy:                                                -0.14364431255180

  Total energy:                                             -1320.87021392078236

  outer SCF iter =    1 RMS gradient =   0.26E-06 energy =      -1320.8702139208
  outer SCF loop converged in   1 iterations or   98 steps


 *** WARNING in qs_loc_utils.F:1500 :: User requested the calculation of ***
 *** the localized wavefunction but the section LOCALIZE was not         ***
 *** specified. Localization will not be performed!                      ***


 -------------------------------------------------------------------------------
 -                                                                             -
 -                                 BSSE RESULTS                                -
 -                                                                             -
 -                 CP-corrected Total energy:    -1320.868321                  -
 -                                                                             -
 -                       1-body contribution:    -1273.657599                  -
 -                       1-body contribution:      -47.165105                  -
 -                                                                             -
 -                       2-body contribution:       -0.045616                  -
 -                 BSSE-free interaction energy:       -0.045616               -
 -------------------------------------------------------------------------------

 -------------------------------------------------------------------------------
 -                                                                             -
 -                                DBCSR STATISTICS                             -
 -                                                                             -
 -------------------------------------------------------------------------------
 COUNTER                                    TOTAL       BLAS       SMM       ACC
 flops     9 x     9 x     9                91854     100.0%      0.0%      0.0%
 flops     9 x     9 x    32               590976     100.0%      0.0%      0.0%
 flops     9 x     9 x   132              1988712     100.0%      0.0%      0.0%
 flops     9 x     9 x   137              2175012     100.0%      0.0%      0.0%
 flops     9 x     9 x   160              4950720     100.0%      0.0%      0.0%
 flops     9 x    13 x     9              6562296     100.0%      0.0%      0.0%
 flops    13 x     9 x     9              6802380     100.0%      0.0%      0.0%
 flops     9 x     9 x   128              7921152     100.0%      0.0%      0.0%
 flops     9 x    13 x    32             69997824     100.0%      0.0%      0.0%
 flops    13 x     9 x    32             72558720     100.0%      0.0%      0.0%
 flops     9 x    13 x   132            235551888     100.0%      0.0%      0.0%
 flops    13 x     9 x   132            244169640     100.0%      0.0%      0.0%
 flops     9 x    13 x   137            257618088     100.0%      0.0%      0.0%
 flops    13 x     9 x   137            267043140     100.0%      0.0%      0.0%
 flops     9 x    13 x   160            586385280     100.0%      0.0%      0.0%
 flops    13 x     9 x   160            607838400     100.0%      0.0%      0.0%
 flops     9 x    13 x   128            938216448     100.0%      0.0%      0.0%
 flops    13 x     9 x   128            972541440     100.0%      0.0%      0.0%
 flops    13 x    13 x     9           1669206240     100.0%      0.0%      0.0%
 flops    13 x    13 x    32          17804866560     100.0%      0.0%      0.0%
 flops    13 x    13 x   137          65528546720     100.0%      0.0%      0.0%
 flops    13 x    13 x   132         108234846720     100.0%      0.0%      0.0%
 flops    13 x    13 x   160         207723443200     100.0%      0.0%      0.0%
 flops    13 x    13 x   128         332357509120     100.0%      0.0%      0.0%
 flops inhomo. stacks                           0       0.0%      0.0%      0.0%
 flops total                       737.601423E+09     100.0%      0.0%      0.0%
 flops max/rank                     50.503347E+09     100.0%      0.0%      0.0%
 matmuls inhomo. stacks                         0       0.0%      0.0%      0.0%
 matmuls total                           17712953     100.0%      0.0%      0.0%
 number of processed stacks                 26809     100.0%      0.0%      0.0%
 average stack size                                   660.7       0.0       0.0
 marketing flops                     2.088026E+12
 -------------------------------------------------------------------------------
 # multiplications                            329
 max memory usage/rank               2.042536E+09
 # max total images/rank                        1
 # max 3D layers                                1
 # MPI messages exchanged                   31584
 MPI messages size (bytes):
  total size                        21.048304E+09
  min size                           0.000000E+00
  max size                         943.360000E+03
  average size                     666.423000E+03
 MPI breakdown and total messages size (bytes):
             size <=      128                2250                        0
       128 < size <=     8192                 150                    97200
      8192 < size <=    32768                   0                        0
     32768 < size <=   131072                 912                 47951136
    131072 < size <=  4194304               28272              21000265248
   4194304 < size <= 16777216                   0                        0
  16777216 < size                               0                        0
 -------------------------------------------------------------------------------
 -                                                                             -
 -                      DBCSR MESSAGE PASSING PERFORMANCE                      -
 -                                                                             -
 -------------------------------------------------------------------------------
 ROUTINE             CALLS      AVE VOLUME [Bytes]
 MP_Bcast               25                     12.
 MP_Allreduce         2375                      8.
 MP_Alltoall          9272                 611588.
 MP_ISend             5264                 257817.
 MP_IRecv             5264                 237042.
 -------------------------------------------------------------------------------

 -------------------------------------------------------------------------------
 -                                                                             -
 -                                DBM STATISTICS                               -
 -                                                                             -
 -------------------------------------------------------------------------------
    M  x    N  x    K                                          COUNT     PERCENT
 -------------------------------------------------------------------------------

 -------------------------------------------------------------------------------
 -                                                                             -
 -                                GRID STATISTICS                              -
 -                                                                             -
 -------------------------------------------------------------------------------
 LP    KERNEL             BACKEND                              COUNT     PERCENT
 4     collocate ortho    REF                               36395744      49.85%
 4     integrate ortho    REF                               35923072      49.20%
 3     collocate ortho    REF                                 331064       0.45%
 3     integrate ortho    REF                                 326783       0.45%
 2     collocate ortho    REF                                  12642       0.02%
 2     integrate ortho    REF                                  12446       0.02%
 0     collocate general  REF                                  10800       0.01%
 -------------------------------------------------------------------------------

 MEMORY| Estimated peak process memory [MiB]                                1948

 -------------------------------------------------------------------------------
 -                                                                             -
 -                         MESSAGE PASSING PERFORMANCE                         -
 -                                                                             -
 -------------------------------------------------------------------------------

 ROUTINE             CALLS      AVE VOLUME [Bytes]
 MP_Group               24
 MP_Bcast              811                1193811.
 MP_Allreduce         4293                   1778.
 MP_Sync               378
 MP_Alltoall          4377               63067438.
 MP_SendRecv         13968                 475463.
 MP_ISendRecv         9870                 444928.
 MP_Wait             24511
 MP_comm_split          25
 MP_ISend            10648                3184873.
 MP_IRecv            10648                3185003.
 MP_Recv               234                 731371.
 -------------------------------------------------------------------------------


 -------------------------------------------------------------------------------
 -                                                                             -
 -                           R E F E R E N C E S                               -
 -                                                                             -
 -------------------------------------------------------------------------------
 
 CP2K version 2023.1, the CP2K developers group (2023).
 CP2K is freely available from https://www.cp2k.org/ .

 Kuehne,Thomas D.; Iannuzzi,Marcella; Del Ben,Mauro;
 Rybkin,Vladimir V.; Seewald,Patrick; Stein,Frederick; Laino,Teodoro;
 Khaliullin,Rustam Z.; Schuett,Ole; Schiffmann,Florian; Golze,Dorothea;
 Wilhelm,Jan; Chulkov,Sergey; Bani-Hashemian,Mohammad Hossein;
 Weber,Valery; Borstnik,Urban; Taillefumier,Mathieu;
 Jakobovits,Alice Shoshana; Lazzaro,Alfio; Pabst,Hans; Mueller,Tiziano;
 Schade,Robert; Guidon,Manuel; Andermatt,Samuel; Holmberg,Nico;
 Schenter,Gregory K.; Hehn,Anna; Bussy,Augustin; Belleflamme,Fabian;
 Tabacchi,Gloria; Gloess,Andreas; Lass,Michael; Bethune,Iain;
 Mundy,Christopher J.; Plessl,Christian; Watkins,Matt;
 VandeVondele,Joost; Krack,Matthias; Hutter,Juerg. 
 The Journal of Chemical Physics, 152 (19), (2020). 
 CP2K: An electronic structure and molecular dynamics software package -
 Quickstep: Efficient and accurate electronic structure calculations.
 https://doi.org/10.1063/5.0007045

 Goerigk, Lars; Hansen, Andreas; Bauer, Christoph; Ehrlich, Stephan;
 Najibi, Asim; Grimme, Stefan. , 19 (48), (2017). 
 A look at the density functional theory zoo with the advanced GMTKN55 database
 for general main group thermochemistry, kinetics and noncovalent interactions.
 https://doi.org/10.1039/C7CP04913G

 Schuett, Ole; Messmer, Peter; Hutter, Juerg; VandeVondele, Joost. 
 Electronic Structure Calculations on Graphics Processing Units, John
 Wiley & Sons, Ltd, 173-190 (2016). 
 GPU-Accelerated Sparse Matrix-Matrix Multiplication for
 Linear Scaling Density Functional Theory.
 https://doi.org/10.1002/9781118670712.ch8

 Borstnik, U; VandeVondele, J; Weber, V; Hutter, J. 
 PARALLEL COMPUTING, 40 (5-6), 47-58 (2014). 
 Sparse matrix multiplication: The distributed block-compressed sparse
 row library.
 https://doi.org/10.1016/j.parco.2014.03.012

 Hutter, J; Iannuzzi, M; Schiffmann, F; VandeVondele, J. 
 WIREs Comput Mol Sci., 4 (1), 15-25 (2014). 
 CP2K: atomistic simulations of condensed matter systems.
 https://doi.org/10.1002/wcms.1159

 Marek, A; Blum, V; Johanni, R; Havu, V; Lang, B; Auckenthaler, T;
 Heinecke, A; Bungartz, H; Lederer, H. 
 Journal of Physics: Condensed Matter, 26 (21), (2014). 
 The ELPA library: scalable parallel eigenvalue solutions for
 electronic structure
 theory and computational science.
 https://doi.org/10.1088/0953-8984/26/21/213201

 Grimme, S; Ehrlich, S; Goerigk, L. 
 JOURNAL OF COMPUTATIONAL CHEMISTRY, 32, 1456 (2011). 
 Effect of the damping function in dispersion corrected density functional theory.
 https://doi.org/10.1002/jcc.21759

 Grimme, S; Antony, J; Ehrlich, S; Krieg, H. 
 JOURNAL OF CHEMICAL PHYSICS, 132 (15), 154104 (2010). 
 A consistent and accurate ab initio parametrization of density
 functional dispersion correction (DFT-D) for the 94 elements H-Pu.
 https://doi.org/10.1063/1.3382344

 VandeVondele, J; Hutter, J. 
 JOURNAL OF CHEMICAL PHYSICS, 127 (11), 114105 (2007). 
 Gaussian basis sets for accurate calculations on molecular systems in
 gas and condensed phases.
 https://doi.org/10.1063/1.2770708

 Krack, M. 
 THEORETICAL CHEMISTRY ACCOUNTS, 114 (1-3), 145-152 (2005). 
 Pseudopotentials for H to Kr optimized for gradient-corrected
 exchange-correlation functionals.
 https://doi.org/10.1007/s00214-005-0655-y

 VandeVondele, J; Krack, M; Mohamed, F; Parrinello, M; Chassaing, T;
 Hutter, J. COMPUTER PHYSICS COMMUNICATIONS, 167 (2), 103-128 (2005). 
 QUICKSTEP: Fast and accurate density functional calculations using a
 mixed Gaussian and plane waves approach.
 https://doi.org/10.1016/j.cpc.2004.12.014

 Frigo, M; Johnson, SG. 
 PROCEEDINGS OF THE IEEE, 93 (2), 216-231 (2005). 
 The design and implementation of FFTW3.
 https://doi.org/10.1109/JPROC.2004.840301

 Hartwigsen, C; Goedecker, S; Hutter, J. 
 PHYSICAL REVIEW B, 58 (7), 3641-3662 (1998). 
 Relativistic separable dual-space Gaussian pseudopotentials from H to Rn.
 https://doi.org/10.1103/PhysRevB.58.3641

 Lippert, G; Hutter, J; Parrinello, M. 
 MOLECULAR PHYSICS, 92 (3), 477-487 (1997). 
 A hybrid Gaussian and plane wave density functional scheme.
 https://doi.org/10.1080/002689797170220

 Perdew, JP; Burke, K; Ernzerhof, M. 
 PHYSICAL REVIEW LETTERS, 77 (18), 3865-3868 (1996). 
 Generalized gradient approximation made simple.
 https://doi.org/10.1103/PhysRevLett.77.3865

 Goedecker, S; Teter, M; Hutter, J. 
 PHYSICAL REVIEW B, 54 (3), 1703-1710 (1996). 
 Separable dual-space Gaussian pseudopotentials.
 https://doi.org/10.1103/PhysRevB.54.1703


 -------------------------------------------------------------------------------
 -                                                                             -
 -                                T I M I N G                                  -
 -                                                                             -
 -------------------------------------------------------------------------------
 SUBROUTINE                       CALLS  ASD         SELF TIME        TOTAL TIME
                                MAXIMUM       AVERAGE  MAXIMUM  AVERAGE  MAXIMUM
 CP2K                                 1  1.0     2.47     2.66 15556.68 15556.70
 qs_energies                          5  2.0     0.01     0.03 15528.09 15528.47
 scf_env_do_scf                       5  3.0     0.00     0.01 15475.17 15475.58
 scf_env_do_scf_inner_loop          329  4.0     0.04     0.06 15475.16 15475.57
 qs_scf_new_mos                     329  5.0     0.02     0.04 10883.04 10885.53
 eigensolver                        329  6.0     0.05     0.07 10518.59 10521.63
 cp_fm_diag_elpa                    304  7.0     0.01     0.02  7942.14  7945.97
 cp_fm_diag_elpa_base               304  8.0  7926.57  7931.24  7933.91  7934.20
 cp_fm_triangular_multiply          987  7.0  2551.73  2558.41  2551.73  2558.41
 qs_ks_update_qs_env                329  5.0     0.00     0.01  2168.58  2170.77
 rebuild_ks_matrix                  329  6.0     0.00     0.00  2153.57  2155.61
 qs_ks_build_kohn_sham_matrix       329  7.0     0.14     0.19  2153.57  2155.61
 qs_rho_update_rho_low              334  5.0     0.00     0.00  1663.47  1664.73
 calculate_rho_elec                 334  6.0     4.02     4.21  1663.47  1664.73
 density_rs2pw                      334  7.0     0.04     0.14  1310.94  1492.19
 sum_up_and_integrate               329  8.0     8.62     9.22  1406.84  1409.08
 integrate_v_rspace                 329  9.0     0.02     0.05  1398.22  1400.56
 rs_pw_transfer                    2657  9.5     0.08     0.12   999.28  1185.13
 pw_transfer                       4302  8.9     0.70     0.82  1124.35  1140.08
 fft_wrap_pw1pw2                   3644  9.9     0.08     0.11  1108.29  1124.00
 fft_wrap_pw1pw2_150               1655 10.2    83.90    89.01   978.57   997.66
 grid_collocate_task_list           334  7.0   314.17   967.68   314.17   967.68
 mp_alltoall_d11v                  4641  9.3   759.16   940.68   759.16   940.68
 grid_integrate_task_list           329 10.0   280.01   939.20   280.01   939.20
 mp_waitany                       10648 11.5   733.36   918.00   733.36   918.00
 rs_pw_transfer_RS2PW_150           339  9.0    16.09    18.63   576.79   902.17
 rs_gather_matrices                 329 10.0     0.64     0.79   693.26   874.67
 fft3d_ps                          3644 11.9   370.90   387.34   806.47   824.86
 gspace_mixing                      324  5.0     3.92     4.20   756.16   756.42
 rs_pw_transfer_RS2PW_50            334  9.0     3.90     4.40   159.30   577.86
 broyden_mixing                     324  6.0   431.25   447.36   537.58   543.67
 qs_vxc_create                      329  8.0     0.02     0.07   463.36   470.17
 xc_vxc_pw_create                   329  9.0     8.56     9.28   463.34   470.16
 potential_pw2rs                    329 10.0     0.30     0.42   424.93   425.89
 xc_rho_set_and_dset_create         329 10.0     9.33    10.00   319.80   349.36
 -------------------------------------------------------------------------------

 The number of warnings for this run is : 6
 
 -------------------------------------------------------------------------------
  **** **** ******  **  PROGRAM ENDED AT                 2025-03-19 20:44:42.244
 ***** ** ***  *** **   PROGRAM RAN ON                                sebnode133
 **    ****   ******    PROGRAM RAN BY                                    luehrs
 ***** **    ** ** **   PROGRAM PROCESS ID                               1323001
  **** **  *******  **  PROGRAM STOPPED IN /home/luehrs/PhD/Sodium_batteries/Sod
                                           ium-graphene-curvature/Curved_surface
                                           _concave/Zig-Zag3
