 DBCSR| CPU Multiplication driver                                           BLAS (U)
 DBCSR| Multrec recursion limit                                              512 (U)
 DBCSR| Multiplication stack size                                           1000 (D)
 DBCSR| Maximum elements for images                                    UNLIMITED (U)
 DBCSR| Multiplicative factor virtual images                                   1 (U)
 DBCSR| Use multiplication densification                                       T (D)
 DBCSR| Multiplication size stacks                                             3 (U)
 DBCSR| Use memory pool for CPU allocation                                     F (U)
 DBCSR| Number of 3D layers                                               SINGLE (U)
 DBCSR| Use MPI memory allocation                                              F (U)
 DBCSR| Use RMA algorithm                                                      F (U)
 DBCSR| Use Communication thread                                               T (U)
 DBCSR| Communication thread load                                             87 (D)
 DBCSR| MPI: My process id                                                     0
 DBCSR| MPI: Number of processes                                              16
 DBCSR| OMP: Current number of threads                                         1
 DBCSR| OMP: Max number of threads                                             1
 DBCSR| Split modifier for TAS multiplication algorithm                  1.0E+00 (U)


  **** **** ******  **  PROGRAM STARTED AT               2025-08-24 21:43:57.859
 ***** ** ***  *** **   PROGRAM STARTED ON                            sebnode128
 **    ****   ******    PROGRAM STARTED BY                                luehrs
 ***** **    ** ** **   PROGRAM PROCESS ID                               2907902
  **** **  *******  **  PROGRAM STARTED IN /home/luehrs/PhD/Sodium_batteries/Sod
                                           ium-graphene-functional_groups/Alcoho
                                           l

 CP2K| version string:                                       CP2K version 2023.1
 CP2K| source code revision number:                                  git:b888bd8
 CP2K| cp2kflags: omp libint fftw3 libxc elpa parallel scalapack spglib         
 CP2K| is freely available from                            https://www.cp2k.org/
 CP2K| Program compiled at                          Tue Jan 10 19:52:03 UTC 2023
 CP2K| Program compiled on                                            x86-ubc-01
 CP2K| Program compiled for                                Linux-x86_64-gfortran
 CP2K| Data directory path                                       /usr/share/cp2k
 CP2K| Input file name                                         input.zig-zag.inp

 GLOBAL| Force Environment number                                              1
 GLOBAL| Basis set file name                                      ./BASIS_MOLOPT
 GLOBAL| Potential file name                                    ./GTH_POTENTIALS
 GLOBAL| MM Potential file name                                     MM_POTENTIAL
 GLOBAL| Coordinate file name                         alcohol_sodium_relaxed.xyz
 GLOBAL| Method name                                                        CP2K
 GLOBAL| Project name                                    alcohol_sodium_BSSE_PBE
 GLOBAL| Run type                                                           BSSE
 GLOBAL| FFT library                                                       FFTW3
 GLOBAL| Diagonalization library                                            ELPA
 GLOBAL| DGEMM library                                                      BLAS
 GLOBAL| Minimum number of eigenvectors for ELPA usage                        16
 GLOBAL| Orthonormality check for eigenvectors                          DISABLED
 GLOBAL| Matrix multiplication library                                 ScaLAPACK
 GLOBAL| All-to-all communication in single precision                          F
 GLOBAL| FFTs using library dependent lengths                                  F
 GLOBAL| Grid backend                                                       AUTO
 GLOBAL| Global print level                                                  LOW
 GLOBAL| MPI I/O enabled                                                       T
 GLOBAL| Total number of message passing processes                            16
 GLOBAL| Number of threads for this process                                    1
 GLOBAL| This output is from process                                           0
 GLOBAL| Stack size for threads created by OpenMP (OMP_STACKSIZE)        default
 GLOBAL| CPU model name                          AMD EPYC 7513 32-Core Processor

 MEMORY| system memory details [Kb]
 MEMORY|                        rank 0           min           max       average
 MEMORY| MemTotal            131832292     131832292     131832292     131832292
 MEMORY| MemFree             127744404     127744404     127744404     127744404
 MEMORY| Buffers                 37092         37092         37092         37092
 MEMORY| Cached                 289044        289044        289044        289044
 MEMORY| Slab                   777460        777460        777460        777460
 MEMORY| SReclaimable           133724        133724        133724        133724
 MEMORY| MemLikelyFree       128204264     128204264     128204264     128204264


 GENERATE|  Preliminary Number of Bonds generated:                             0
 GENERATE|  Achieved consistency in connectivity generation.

 *******************************************************************************
 *******************************************************************************
 **                                                                           **
 **     #####                         ##              ##                      **
 **    ##   ##            ##          ##              ##                      **
 **   ##     ##                       ##            ######                    **
 **   ##     ##  ##   ##  ##   #####  ##  ##   ####   ##    #####    #####    **
 **   ##     ##  ##   ##  ##  ##      ## ##   ##      ##   ##   ##  ##   ##   **
 **   ##  ## ##  ##   ##  ##  ##      ####     ###    ##   ######   ######    **
 **    ##  ###   ##   ##  ##  ##      ## ##      ##   ##   ##       ##        **
 **     #######   #####   ##   #####  ##  ##  ####    ##    #####   ##        **
 **           ##                                                    ##        **
 **                                                                           **
 **                                                ... make the atoms dance   **
 **                                                                           **
 **            Copyright (C) by CP2K developers group (2000-2022)             **
 **                      J. Chem. Phys. 152, 194103 (2020)                    **
 **                                                                           **
 *******************************************************************************


 TOTAL NUMBERS AND MAXIMUM NUMBERS

  Total number of            - Atomic kinds:                                   4
                             - Atoms:                                        115
                             - Shell sets:                                   115
                             - Shells:                                       573
                             - Primitive Cartesian functions:                577
                             - Cartesian basis functions:                   1596
                             - Spherical basis functions:                   1483

  Maximum angular momentum of- Orbital basis functions:                        2
                             - Local part of the GTH pseudopotential:          2
                             - Non-local part of the GTH pseudopotential:      1


 SCF PARAMETERS         Density guess:                                    ATOMIC
                        --------------------------------------------------------
                        max_scf:                                             100
                        max_scf_history:                                       0
                        max_diis:                                              4
                        --------------------------------------------------------
                        eps_scf:                                        3.00E-07
                        eps_scf_history:                                0.00E+00
                        eps_diis:                                       1.00E-01
                        eps_eigval:                                     1.00E-05
                        --------------------------------------------------------
                        level_shift [a.u.]:                             0.000000
                        added MOs                                       100  100
                        --------------------------------------------------------
                        Mixing method:                            BROYDEN_MIXING
                                                charge density mixing in g-space
                        --------------------------------------------------------
                        Smear method:                                FERMI_DIRAC
                        Electronic temperature [K]:                        300.0
                        Electronic temperature [a.u.]:                  9.50E-04
                        Accuracy threshold:                             1.00E-10
                        --------------------------------------------------------
                        Outer loop SCF in use 
                        No variables optimised in outer loop
                        eps_scf                                         1.00E-06
                        max_scf                                               30
                        DIIS optimization
                        DIIS buffer length                                     3
                        step_size                                       5.00E-01

 -------------------------------------------------------------------------------
 -                                                                             -
 -  BSSE CALCULATION         FRAGMENT CONF: 10        FRAGMENT SUBCONF: 10     -
 -                           CHARGE =     0           MULTIPLICITY =     0     -
 -                                                                             -
 -                 ATOM INDEX                              ATOM NAME           -
 -                 ----------                              ---------           -
 -                      1                                   C                  -
 -                      2                                   C                  -
 -                      3                                   C                  -
 -                      4                                   C                  -
 -                      5                                   C                  -
 -                      6                                   C                  -
 -                      7                                   C                  -
 -                      8                                   C                  -
 -                      9                                   C                  -
 -                     10                                   C                  -
 -                     11                                   C                  -
 -                     12                                   C                  -
 -                     13                                   C                  -
 -                     14                                   C                  -
 -                     15                                   C                  -
 -                     16                                   C                  -
 -                     17                                   C                  -
 -                     18                                   C                  -
 -                     19                                   C                  -
 -                     20                                   C                  -
 -                     21                                   C                  -
 -                     22                                   C                  -
 -                     23                                   C                  -
 -                     24                                   C                  -
 -                     25                                   C                  -
 -                     26                                   C                  -
 -                     27                                   C                  -
 -                     28                                   C                  -
 -                     29                                   C                  -
 -                     30                                   C                  -
 -                     31                                   C                  -
 -                     32                                   C                  -
 -                     33                                   C                  -
 -                     34                                   C                  -
 -                     35                                   C                  -
 -                     36                                   C                  -
 -                     37                                   C                  -
 -                     38                                   C                  -
 -                     39                                   C                  -
 -                     40                                   C                  -
 -                     41                                   C                  -
 -                     42                                   C                  -
 -                     43                                   C                  -
 -                     44                                   C                  -
 -                     45                                   C                  -
 -                     46                                   C                  -
 -                     47                                   C                  -
 -                     48                                   C                  -
 -                     49                                   C                  -
 -                     50                                   C                  -
 -                     51                                   C                  -
 -                     52                                   C                  -
 -                     53                                   C                  -
 -                     54                                   C                  -
 -                     55                                   C                  -
 -                     56                                   C                  -
 -                     57                                   C                  -
 -                     58                                   C                  -
 -                     59                                   C                  -
 -                     60                                   C                  -
 -                     61                                   C                  -
 -                     62                                   C                  -
 -                     63                                   C                  -
 -                     64                                   C                  -
 -                     65                                   C                  -
 -                     66                                   C                  -
 -                     67                                   C                  -
 -                     68                                   C                  -
 -                     69                                   C                  -
 -                     70                                   C                  -
 -                     71                                   C                  -
 -                     72                                   C                  -
 -                     73                                   C                  -
 -                     74                                   C                  -
 -                     75                                   C                  -
 -                     76                                   C                  -
 -                     77                                   C                  -
 -                     78                                   C                  -
 -                     79                                   C                  -
 -                     80                                   C                  -
 -                     81                                   C                  -
 -                     82                                   C                  -
 -                     83                                   C                  -
 -                     84                                   C                  -
 -                     85                                   C                  -
 -                     86                                   C                  -
 -                     87                                   C                  -
 -                     88                                   C                  -
 -                     89                                   C                  -
 -                     90                                   C                  -
 -                     91                                   C                  -
 -                     92                                   C                  -
 -                     93                                   C                  -
 -                     94                                   C                  -
 -                     95                                   C                  -
 -                     96                                   C                  -
 -                     97                                   C                  -
 -                     98                                   C                  -
 -                     99                                   C                  -
 -                    100                                   C                  -
 -                    101                                   C                  -
 -                    102                                   C                  -
 -                    103                                   C                  -
 -                    104                                   C                  -
 -                    105                                   C                  -
 -                    106                                   C                  -
 -                    107                                   C                  -
 -                    108                                   C                  -
 -                    109                                   C                  -
 -                    110                                   C                  -
 -                    111                                   C                  -
 -                    112                                   C                  -
 -                    113                                   O                  -
 -                    114                                   H                  -
 -------------------------------------------------------------------------------

 *******************************************************************************
 *******************************************************************************
 **                                                                           **
 **     #####                         ##              ##                      **
 **    ##   ##            ##          ##              ##                      **
 **   ##     ##                       ##            ######                    **
 **   ##     ##  ##   ##  ##   #####  ##  ##   ####   ##    #####    #####    **
 **   ##     ##  ##   ##  ##  ##      ## ##   ##      ##   ##   ##  ##   ##   **
 **   ##  ## ##  ##   ##  ##  ##      ####     ###    ##   ######   ######    **
 **    ##  ###   ##   ##  ##  ##      ## ##      ##   ##   ##       ##        **
 **     #######   #####   ##   #####  ##  ##  ####    ##    #####   ##        **
 **           ##                                                    ##        **
 **                                                                           **
 **                                                ... make the atoms dance   **
 **                                                                           **
 **            Copyright (C) by CP2K developers group (2000-2022)             **
 **                      J. Chem. Phys. 152, 194103 (2020)                    **
 **                                                                           **
 *******************************************************************************


 TOTAL NUMBERS AND MAXIMUM NUMBERS

  Total number of            - Atomic kinds:                                   3
                             - Atoms:                                        114
                             - Shell sets:                                   114
                             - Shells:                                       568
                             - Primitive Cartesian functions:                570
                             - Cartesian basis functions:                   1587
                             - Spherical basis functions:                   1474

  Maximum angular momentum of- Orbital basis functions:                        2
                             - Local part of the GTH pseudopotential:          2
                             - Non-local part of the GTH pseudopotential:      0


 SCF PARAMETERS         Density guess:                                    ATOMIC
                        --------------------------------------------------------
                        max_scf:                                             100
                        max_scf_history:                                       0
                        max_diis:                                              4
                        --------------------------------------------------------
                        eps_scf:                                        3.00E-07
                        eps_scf_history:                                0.00E+00
                        eps_diis:                                       1.00E-01
                        eps_eigval:                                     1.00E-05
                        --------------------------------------------------------
                        level_shift [a.u.]:                             0.000000
                        added MOs                                       100  100
                        --------------------------------------------------------
                        Mixing method:                            BROYDEN_MIXING
                                                charge density mixing in g-space
                        --------------------------------------------------------
                        Smear method:                                FERMI_DIRAC
                        Electronic temperature [K]:                        300.0
                        Electronic temperature [a.u.]:                  9.50E-04
                        Accuracy threshold:                             1.00E-10
                        --------------------------------------------------------
                        Outer loop SCF in use 
                        No variables optimised in outer loop
                        eps_scf                                         1.00E-06
                        max_scf                                               30
                        DIIS optimization
                        DIIS buffer length                                     3
                        step_size                                       5.00E-01

 Spin 1

 Number of electrons:                                                        228
 Number of occupied orbitals:                                                228
 Number of molecular orbitals:                                               328

 Spin 2

 Number of electrons:                                                        227
 Number of occupied orbitals:                                                227
 Number of molecular orbitals:                                               327

 Number of orbital functions:                                               1474
 Number of independent orbital functions:                                   1474

 Extrapolation method: initial_guess


 SCF WAVEFUNCTION OPTIMIZATION

  Step     Update method      Time    Convergence         Total energy    Change
  ------------------------------------------------------------------------------
     1 NoMix/Diag. 0.10E+00    2.6     0.47358414      -650.1224968394 -6.50E+02
     2 Broy./Diag. 0.10E+00    4.0     0.03135228      -623.8046114432  2.63E+01
     3 Broy./Diag. 0.10E+00    4.1     0.28514616      -641.1194237008 -1.73E+01
     4 Broy./Diag. 0.10E+00    4.1     0.03601762      -649.9797441960 -8.86E+00
     5 Broy./Diag. 0.10E+00    4.2     0.10012637      -652.4504961419 -2.47E+00
     6 Broy./Diag. 0.10E+00    4.2     0.00920585      -653.3121077447 -8.62E-01
     7 Broy./Diag. 0.10E+00    4.3     0.02257515      -653.4289981498 -1.17E-01
     8 Broy./Diag. 0.10E+00    4.3     0.00309545      -653.8881024886 -4.59E-01
     9 Broy./Diag. 0.10E+00    4.4     0.01013001      -654.0984762340 -2.10E-01
    10 Broy./Diag. 0.10E+00    4.4     0.00395950      -654.2925353461 -1.94E-01
    11 Broy./Diag. 0.10E+00    4.4     0.00156167      -654.3720381058 -7.95E-02
    12 Broy./Diag. 0.10E+00    4.4     0.00160392      -654.4424074833 -7.04E-02
    13 Broy./Diag. 0.10E+00    4.5     0.00384855      -654.4590150310 -1.66E-02
    14 Broy./Diag. 0.10E+00    4.4     0.00182889      -654.4718190125 -1.28E-02
    15 Broy./Diag. 0.10E+00    4.4     0.00075858      -654.4745475464 -2.73E-03
    16 Broy./Diag. 0.10E+00    4.5     0.00924854      -654.4626933798  1.19E-02
    17 Broy./Diag. 0.10E+00    4.5     0.00286469      -654.4734015874 -1.07E-02
    18 Broy./Diag. 0.10E+00    4.4     0.00053841      -654.4699754284  3.43E-03
    19 Broy./Diag. 0.10E+00    4.5     0.00124993      -654.4863108777 -1.63E-02
    20 Broy./Diag. 0.10E+00    4.5     0.00185507      -654.4995346119 -1.32E-02
    21 Broy./Diag. 0.10E+00    4.4     0.00170353      -654.5009552798 -1.42E-03
    22 Broy./Diag. 0.10E+00    4.5     0.00272756      -654.4906663939  1.03E-02
    23 Broy./Diag. 0.10E+00    4.5     0.00129303      -654.4835026904  7.16E-03
    24 Broy./Diag. 0.10E+00    4.5     0.00091079      -654.4824612020  1.04E-03
    25 Broy./Diag. 0.10E+00    4.5     0.00249824      -654.4841147559 -1.65E-03
    26 Broy./Diag. 0.10E+00    4.5     0.00255505      -654.4909286544 -6.81E-03
    27 Broy./Diag. 0.10E+00    4.5     0.00282972      -654.4981360840 -7.21E-03
    28 Broy./Diag. 0.10E+00    4.5     0.00069689      -654.5079949121 -9.86E-03
    29 Broy./Diag. 0.10E+00    4.5     0.00529932      -654.5122063875 -4.21E-03
    30 Broy./Diag. 0.10E+00    4.5     0.00070625      -654.5152000047 -2.99E-03
    31 Broy./Diag. 0.10E+00    4.5     0.00208460      -654.5177294126 -2.53E-03
    32 Broy./Diag. 0.10E+00    4.5     0.00078801      -654.5197682762 -2.04E-03
    33 Broy./Diag. 0.10E+00    4.5     0.01075195      -654.5193053771  4.63E-04
    34 Broy./Diag. 0.10E+00    4.5     0.00174341      -654.5228921758 -3.59E-03
    35 Broy./Diag. 0.10E+00    4.5     0.00304925      -654.5233882297 -4.96E-04
    36 Broy./Diag. 0.10E+00    4.5     0.00423386      -654.5276993725 -4.31E-03
    37 Broy./Diag. 0.10E+00    4.5     0.00014814      -654.5288108282 -1.11E-03
    38 Broy./Diag. 0.10E+00    4.5     0.00097266      -654.5288518534 -4.10E-05
    39 Broy./Diag. 0.10E+00    4.5     0.00012466      -654.5285949660  2.57E-04
    40 Broy./Diag. 0.10E+00    4.5     0.00035154      -654.5287228254 -1.28E-04
    41 Broy./Diag. 0.10E+00    4.5     0.00023384      -654.5291699199 -4.47E-04
    42 Broy./Diag. 0.10E+00    4.5     0.00096843      -654.5274560172  1.71E-03
    43 Broy./Diag. 0.10E+00    4.5     0.00112294      -654.5290452345 -1.59E-03
    44 Broy./Diag. 0.10E+00    4.5     0.00083905      -654.5279595796  1.09E-03
    45 Broy./Diag. 0.10E+00    4.5     0.00156614      -654.5238255189  4.13E-03
    46 Broy./Diag. 0.10E+00    4.5     0.00015007      -654.5207935555  3.03E-03
    47 Broy./Diag. 0.10E+00    4.5     0.00026198      -654.5179951130  2.80E-03
    48 Broy./Diag. 0.10E+00    4.5     0.00017332      -654.5162759557  1.72E-03
    49 Broy./Diag. 0.10E+00    4.5     0.00009291      -654.5175403476 -1.26E-03
    50 Broy./Diag. 0.10E+00    4.5     0.00024771      -654.5198603148 -2.32E-03
    51 Broy./Diag. 0.10E+00    4.5     0.00010368      -654.5196689797  1.91E-04
    52 Broy./Diag. 0.10E+00    4.5     0.00064063      -654.5194884504  1.81E-04
    53 Broy./Diag. 0.10E+00    5.7     0.00026213      -654.5180107747  1.48E-03
    54 Broy./Diag. 0.10E+00    7.3     0.00014476      -654.5186851982 -6.74E-04
    55 Broy./Diag. 0.10E+00    7.6     0.00013390      -654.5187404848 -5.53E-05
    56 Broy./Diag. 0.10E+00    7.6     0.00008568      -654.5173807755  1.36E-03
    57 Broy./Diag. 0.10E+00    7.4     0.00002811      -654.5174384652 -5.77E-05
    58 Broy./Diag. 0.10E+00    7.5     0.00002076      -654.5178219060 -3.83E-04
    59 Broy./Diag. 0.10E+00    7.5     0.00006465      -654.5188166185 -9.95E-04
    60 Broy./Diag. 0.10E+00    7.5     0.00005960      -654.5191863632 -3.70E-04
    61 Broy./Diag. 0.10E+00    7.7     0.00006458      -654.5192017795 -1.54E-05
    62 Broy./Diag. 0.10E+00    7.5     0.00002150      -654.5191946519  7.13E-06
    63 Broy./Diag. 0.10E+00    7.6     0.00017371      -654.5192335522 -3.89E-05
    64 Broy./Diag. 0.10E+00    7.5     0.00053084      -654.5191140930  1.19E-04
    65 Broy./Diag. 0.10E+00    7.6     0.00026869      -654.5190431571  7.09E-05
    66 Broy./Diag. 0.10E+00    7.6     0.00006132      -654.5190337431  9.41E-06
    67 Broy./Diag. 0.10E+00    7.6     0.00005557      -654.5190428972 -9.15E-06
    68 Broy./Diag. 0.10E+00    7.6     0.00001633      -654.5190209467  2.20E-05
    69 Broy./Diag. 0.10E+00    7.6     0.00016024      -654.5190777422 -5.68E-05
    70 Broy./Diag. 0.10E+00   27.4     0.00010325      -654.5190973155 -1.96E-05
    71 Broy./Diag. 0.10E+00   49.9     0.00003347      -654.5190708178  2.65E-05
    72 Broy./Diag. 0.10E+00   51.7     0.00005929      -654.5190630941  7.72E-06
    73 Broy./Diag. 0.10E+00   48.6     0.00005053      -654.5190946118 -3.15E-05
    74 Broy./Diag. 0.10E+00   49.6     0.00004289      -654.5190439955  5.06E-05
    75 Broy./Diag. 0.10E+00   51.9     0.00009018      -654.5191107039 -6.67E-05
    76 Broy./Diag. 0.10E+00   54.2     0.00002963      -654.5191163775 -5.67E-06
    77 Broy./Diag. 0.10E+00   46.2     0.00002120      -654.5190345332  8.18E-05
    78 Broy./Diag. 0.10E+00   46.2     0.00003443      -654.5189926506  4.19E-05
    79 Broy./Diag. 0.10E+00  103.3     0.00002899      -654.5189641193  2.85E-05
    80 Broy./Diag. 0.10E+00  188.6     0.00002899      -654.5189673113 -3.19E-06
    81 Broy./Diag. 0.10E+00  184.3     0.00009342      -654.5190456603 -7.83E-05
    82 Broy./Diag. 0.10E+00  175.4     0.00001912      -654.5190502849 -4.62E-06
    83 Broy./Diag. 0.10E+00  177.0     0.00001057      -654.5190130761  3.72E-05
    84 Broy./Diag. 0.10E+00  184.3     0.00000777      -654.5190266746 -1.36E-05
    85 Broy./Diag. 0.10E+00  180.4     0.00000278      -654.5189865768  4.01E-05
    86 Broy./Diag. 0.10E+00  193.0     0.00000919      -654.5188971603  8.94E-05
    87 Broy./Diag. 0.10E+00  199.8     0.00000910      -654.5188709026  2.63E-05
    88 Broy./Diag. 0.10E+00  206.6     0.00001032      -654.5188306279  4.03E-05
    89 Broy./Diag. 0.10E+00  178.2     0.00005215      -654.5188627391 -3.21E-05
    90 Broy./Diag. 0.10E+00  199.7     0.00000987      -654.5190349858 -1.72E-04
    91 Broy./Diag. 0.10E+00  198.7     0.00001381      -654.5191912534 -1.56E-04
    92 Broy./Diag. 0.10E+00  187.5     0.00000691      -654.5192803643 -8.91E-05
    93 Broy./Diag. 0.10E+00  191.7     0.00000409      -654.5193457608 -6.54E-05
    94 Broy./Diag. 0.10E+00  179.5     0.00000910      -654.5193449078  8.53E-07
    95 Broy./Diag. 0.10E+00  192.9     0.00001825      -654.5193533554 -8.45E-06
    96 Broy./Diag. 0.10E+00  187.2     0.00001152      -654.5194176501 -6.43E-05
    97 Broy./Diag. 0.10E+00  191.4     0.00000626      -654.5194466151 -2.90E-05
    98 Broy./Diag. 0.10E+00  212.5     0.00000199      -654.5194734910 -2.69E-05
    99 Broy./Diag. 0.10E+00  173.2     0.00000121      -654.5194771853 -3.69E-06
   100 Broy./Diag. 0.10E+00  185.5     0.00000541      -654.5194920814 -1.49E-05

  Leaving inner SCF loop after reaching   100 steps.


  Electronic density on regular grids:       -454.9999999755        0.0000000245
  Core density on regular grids:              454.9999999996       -0.0000000004
  Total charge density on r-space grids:        0.0000000241
  Total charge density g-space grids:           0.0000000241

  Overlap energy of the core charge distribution:               0.00001876681286
  Self energy of the core charge distribution:              -1536.45756883557192
  Core Hamiltonian energy:                                    480.28691601591026
  Hartree energy:                                             601.40255561789763
  Exchange-correlation energy:                               -199.60578013429696
  Dispersion energy:                                           -0.14546401051613
  Electronic entropic energy:                                  -0.00016945739283
  Fermi energy:                                                -0.11254523497891

  Total energy:                                              -654.51949208137478

  outer SCF iter =    1 RMS gradient =   0.54E-05 energy =       -654.5194920814
     1 Broy./Diag. 0.10E+00  387.3     0.00000888      -654.5195148481 -2.28E-05
     2 Broy./Diag. 0.10E+00  184.7     0.00001211      -654.5194858380  2.90E-05
     3 Broy./Diag. 0.10E+00  215.9     0.00000419      -654.5195144977 -2.87E-05
     4 Broy./Diag. 0.10E+00  196.3     0.00000267      -654.5195284292 -1.39E-05
     5 Broy./Diag. 0.10E+00  165.6     0.00000486      -654.5195194145  9.01E-06
     6 Broy./Diag. 0.10E+00  180.7     0.00000085      -654.5195259014 -6.49E-06
     7 Broy./Diag. 0.10E+00  181.5     0.00000185      -654.5195327872 -6.89E-06
     8 Broy./Diag. 0.10E+00  182.3     0.00000262      -654.5195322692  5.18E-07
     9 Broy./Diag. 0.10E+00  169.8     0.00000250      -654.5195369064 -4.64E-06
    10 Broy./Diag. 0.10E+00  198.1     0.00000146      -654.5195387549 -1.85E-06
    11 Broy./Diag. 0.10E+00  189.3     0.00000094      -654.5195327224  6.03E-06
    12 Broy./Diag. 0.10E+00  199.5     0.00000121      -654.5195171629  1.56E-05
    13 Broy./Diag. 0.10E+00  168.3     0.00000366      -654.5195162052  9.58E-07
    14 Broy./Diag. 0.10E+00  176.1     0.00000268      -654.5195107569  5.45E-06
    15 Broy./Diag. 0.10E+00  209.7     0.00000069      -654.5195084607  2.30E-06
    16 Broy./Diag. 0.10E+00  188.4     0.00000207      -654.5195102964 -1.84E-06
    17 Broy./Diag. 0.10E+00  186.8     0.00000135      -654.5195108141 -5.18E-07
    18 Broy./Diag. 0.10E+00  197.4     0.00000047      -654.5195090238  1.79E-06
    19 Broy./Diag. 0.10E+00  186.0     0.00000087      -654.5195105866 -1.56E-06
    20 Broy./Diag. 0.10E+00  201.5     0.00000093      -654.5195141044 -3.52E-06
    21 Broy./Diag. 0.10E+00  197.3     0.00000059      -654.5195151130 -1.01E-06
    22 Broy./Diag. 0.10E+00  206.7     0.00000060      -654.5195142747  8.38E-07
    23 Broy./Diag. 0.10E+00  189.7     0.00000094      -654.5195136449  6.30E-07
    24 Broy./Diag. 0.10E+00  198.7     0.00000035      -654.5195147911 -1.15E-06
    25 Broy./Diag. 0.10E+00  176.6     0.00000129      -654.5195144133  3.78E-07
    26 Broy./Diag. 0.10E+00  191.4     0.00000010      -654.5195138944  5.19E-07

  *** SCF run converged in    26 steps ***


  Electronic density on regular grids:       -454.9999999755        0.0000000245
  Core density on regular grids:              454.9999999996       -0.0000000004
  Total charge density on r-space grids:        0.0000000241
  Total charge density g-space grids:           0.0000000241

  Overlap energy of the core charge distribution:               0.00001876681286
  Self energy of the core charge distribution:              -1536.45756883557192
  Core Hamiltonian energy:                                    480.28689215390386
  Hartree energy:                                             601.40256900922805
  Exchange-correlation energy:                               -199.60579155854072
  Dispersion energy:                                           -0.14546401051613
  Electronic entropic energy:                                  -0.00016941934230
  Fermi energy:                                                -0.11254459441380

  Total energy:                                              -654.51951389440092

  outer SCF iter =    2 RMS gradient =   0.96E-07 energy =       -654.5195138944
  outer SCF loop converged in   2 iterations or  126 steps


  Integrated absolute spin density  :                               1.8262633864
  WARNING: S**2 computation does not yet treat fractional occupied orbitals

 *** WARNING in qs_loc_utils.F:1500 :: User requested the calculation of ***
 *** the localized wavefunction but the section LOCALIZE was not         ***
 *** specified. Localization will not be performed!                      ***


 -------------------------------------------------------------------------------
 -                                                                             -
 -  BSSE CALCULATION         FRAGMENT CONF: 01        FRAGMENT SUBCONF: 01     -
 -                           CHARGE =     0           MULTIPLICITY =     0     -
 -                                                                             -
 -                 ATOM INDEX                              ATOM NAME           -
 -                 ----------                              ---------           -
 -                    115                                   Na                 -
 -------------------------------------------------------------------------------

 *******************************************************************************
 *******************************************************************************
 **                                                                           **
 **     #####                         ##              ##                      **
 **    ##   ##            ##          ##              ##                      **
 **   ##     ##                       ##            ######                    **
 **   ##     ##  ##   ##  ##   #####  ##  ##   ####   ##    #####    #####    **
 **   ##     ##  ##   ##  ##  ##      ## ##   ##      ##   ##   ##  ##   ##   **
 **   ##  ## ##  ##   ##  ##  ##      ####     ###    ##   ######   ######    **
 **    ##  ###   ##   ##  ##  ##      ## ##      ##   ##   ##       ##        **
 **     #######   #####   ##   #####  ##  ##  ####    ##    #####   ##        **
 **           ##                                                    ##        **
 **                                                                           **
 **                                                ... make the atoms dance   **
 **                                                                           **
 **            Copyright (C) by CP2K developers group (2000-2022)             **
 **                      J. Chem. Phys. 152, 194103 (2020)                    **
 **                                                                           **
 *******************************************************************************

 *** WARNING in qs_environment.F:1470 :: More ADDED_MOs requested for beta ***
 *** spin than available.                                                  ***


 *** WARNING in qs_environment.F:1486 :: More added MOs requested than     ***
 *** available. The full set of unoccupied MOs will be used. Use           ***
 *** 'ADDED_MOS -1' to always use all available MOs and to get rid of this ***
 *** warning.                                                              ***



 TOTAL NUMBERS AND MAXIMUM NUMBERS

  Total number of            - Atomic kinds:                                   1
                             - Atoms:                                          1
                             - Shell sets:                                     1
                             - Shells:                                         5
                             - Primitive Cartesian functions:                  7
                             - Cartesian basis functions:                      9
                             - Spherical basis functions:                      9

  Maximum angular momentum of- Orbital basis functions:                        1
                             - Local part of the GTH pseudopotential:          2
                             - Non-local part of the GTH pseudopotential:      1


 SCF PARAMETERS         Density guess:                                    ATOMIC
                        --------------------------------------------------------
                        max_scf:                                             100
                        max_scf_history:                                       0
                        max_diis:                                              4
                        --------------------------------------------------------
                        eps_scf:                                        3.00E-07
                        eps_scf_history:                                0.00E+00
                        eps_diis:                                       1.00E-01
                        eps_eigval:                                     1.00E-05
                        --------------------------------------------------------
                        level_shift [a.u.]:                             0.000000
                        added MOs                                         4    5
                        --------------------------------------------------------
                        Mixing method:                            BROYDEN_MIXING
                                                charge density mixing in g-space
                        --------------------------------------------------------
                        Smear method:                                FERMI_DIRAC
                        Electronic temperature [K]:                        300.0
                        Electronic temperature [a.u.]:                  9.50E-04
                        Accuracy threshold:                             1.00E-10
                        --------------------------------------------------------
                        Outer loop SCF in use 
                        No variables optimised in outer loop
                        eps_scf                                         1.00E-06
                        max_scf                                               30
                        DIIS optimization
                        DIIS buffer length                                     3
                        step_size                                       5.00E-01

 Spin 1

 Number of electrons:                                                          5
 Number of occupied orbitals:                                                  5
 Number of molecular orbitals:                                                 9

 Spin 2

 Number of electrons:                                                          4
 Number of occupied orbitals:                                                  4
 Number of molecular orbitals:                                                 9

 Number of orbital functions:                                                  9
 Number of independent orbital functions:                                      9

 Extrapolation method: initial_guess


 SCF WAVEFUNCTION OPTIMIZATION

  Step     Update method      Time    Convergence         Total energy    Change
  ------------------------------------------------------------------------------
     1 NoMix/Diag. 0.10E+00   10.7     0.42030252       -47.1729785507 -4.72E+01
     2 Broy./Diag. 0.10E+00   13.9     0.00652461       -47.1319727309  4.10E-02
     3 Broy./Diag. 0.10E+00   13.8     0.02138162       -47.1736019312 -4.16E-02
     4 Broy./Diag. 0.10E+00   15.4     0.00032144       -47.1651131025  8.49E-03
     5 Broy./Diag. 0.10E+00   17.8     0.12540845       -47.1777757946 -1.27E-02
     6 Broy./Diag. 0.10E+00   15.9     0.01873165       -46.7638289271  4.14E-01
     7 Broy./Diag. 0.10E+00   14.7     0.00460469       -46.7469613281  1.69E-02
     8 Broy./Diag. 0.10E+00   15.3     0.01507279       -46.7549878125 -8.03E-03
     9 Broy./Diag. 0.10E+00   13.4     0.04458823       -46.8557512635 -1.01E-01
    10 Broy./Diag. 0.10E+00   17.4     0.01682539       -47.0182441153 -1.62E-01
    11 Broy./Diag. 0.10E+00   16.3     0.00542621       -47.0900620849 -7.18E-02
    12 Broy./Diag. 0.10E+00   15.4     0.02062995       -47.1140635188 -2.40E-02
    13 Broy./Diag. 0.10E+00   14.1     0.01697770       -47.1911320634 -7.71E-02
    14 Broy./Diag. 0.10E+00   16.4     0.00437869       -47.2284760718 -3.73E-02
    15 Broy./Diag. 0.10E+00   17.3     0.01421900       -47.2041040255  2.44E-02
    16 Broy./Diag. 0.10E+00   16.1     0.00407455       -47.2558232666 -5.17E-02
    17 Broy./Diag. 0.10E+00   16.3     0.00108482       -47.2633153085 -7.49E-03
    18 Broy./Diag. 0.10E+00   15.8     0.00272499       -47.2771955843 -1.39E-02
    19 Broy./Diag. 0.10E+00   16.3     0.00468100       -47.2901439902 -1.29E-02
    20 Broy./Diag. 0.10E+00   15.8     0.00159533       -47.3087967346 -1.87E-02
    21 Broy./Diag. 0.10E+00   17.5     0.00021494       -47.3126006128 -3.80E-03
    22 Broy./Diag. 0.10E+00   17.1     0.00010377       -47.3146889270 -2.09E-03
    23 Broy./Diag. 0.10E+00   16.4     0.00015606       -47.3202425936 -5.55E-03
    24 Broy./Diag. 0.10E+00   17.5     0.02116414       -47.2880197717  3.22E-02
    25 Broy./Diag. 0.10E+00   15.9     0.00375252       -47.1897410223  9.83E-02
    26 Broy./Diag. 0.10E+00   15.3     0.00061524       -47.1820484108  7.69E-03
    27 Broy./Diag. 0.10E+00   16.2     0.00015791       -47.1829252700 -8.77E-04
    28 Broy./Diag. 0.10E+00   17.9     0.00154165       -47.1822918636  6.33E-04
    29 Broy./Diag. 0.10E+00   15.6     0.00255507       -47.1901486107 -7.86E-03
    30 Broy./Diag. 0.10E+00   16.1     0.00126142       -47.1997467652 -9.60E-03
    31 Broy./Diag. 0.10E+00   16.0     0.00175608       -47.2085681026 -8.82E-03
    32 Broy./Diag. 0.10E+00   17.4     0.00193822       -47.2161401634 -7.57E-03
    33 Broy./Diag. 0.10E+00   16.4     0.00114131       -47.2255755498 -9.44E-03
    34 Broy./Diag. 0.10E+00   15.4     0.00221472       -47.2328202834 -7.24E-03
    35 Broy./Diag. 0.10E+00   16.8     0.00476237       -47.2432357076 -1.04E-02
    36 Broy./Diag. 0.10E+00   15.7     0.00170630       -47.2645603934 -2.13E-02
    37 Broy./Diag. 0.10E+00   15.4     0.00034977       -47.2679284373 -3.37E-03
    38 Broy./Diag. 0.10E+00   16.0     0.00108568       -47.2639732012  3.96E-03
    39 Broy./Diag. 0.10E+00   17.2     0.00166527       -47.2659904805 -2.02E-03
    40 Broy./Diag. 0.10E+00   16.7     0.00013270       -47.2769716199 -1.10E-02
    41 Broy./Diag. 0.10E+00   15.8     0.00013988       -47.2678081428  9.16E-03
    42 Broy./Diag. 0.10E+00   14.9     0.00046535       -47.2578426362  9.97E-03
    43 Broy./Diag. 0.10E+00   16.8     0.00027356       -47.2502650055  7.58E-03
    44 Broy./Diag. 0.10E+00   18.7     0.00050548       -47.2388088376  1.15E-02
    45 Broy./Diag. 0.10E+00   17.1     0.00026826       -47.2260802458  1.27E-02
    46 Broy./Diag. 0.10E+00   18.0     0.00050106       -47.2055051984  2.06E-02
    47 Broy./Diag. 0.10E+00   16.2     0.00021140       -47.1960293309  9.48E-03
    48 Broy./Diag. 0.10E+00   15.2     0.00035728       -47.1740364326  2.20E-02
    49 Broy./Diag. 0.10E+00   16.6     0.00009256       -47.1727636382  1.27E-03
    50 Broy./Diag. 0.10E+00   16.7     0.00019162       -47.1684647622  4.30E-03
    51 Broy./Diag. 0.10E+00   17.9     0.00021008       -47.1693524064 -8.88E-04
    52 Broy./Diag. 0.10E+00   15.4     0.00004847       -47.1729532537 -3.60E-03
    53 Broy./Diag. 0.10E+00   15.4     0.00018991       -47.1673818993  5.57E-03
    54 Broy./Diag. 0.10E+00   16.8     0.00010993       -47.1653874640  1.99E-03
    55 Broy./Diag. 0.10E+00   15.2     0.00004440       -47.1675955352 -2.21E-03
    56 Broy./Diag. 0.10E+00   16.0     0.00007291       -47.1675496191  4.59E-05
    57 Broy./Diag. 0.10E+00   17.7     0.00036878       -47.1681662308 -6.17E-04
    58 Broy./Diag. 0.10E+00   16.3     0.00012206       -47.1656740823  2.49E-03
    59 Broy./Diag. 0.10E+00   15.7     0.00008918       -47.1662321216 -5.58E-04
    60 Broy./Diag. 0.10E+00   15.5     0.00028687       -47.1674799726 -1.25E-03
    61 Broy./Diag. 0.10E+00   16.5     0.00070916       -47.1736326359 -6.15E-03
    62 Broy./Diag. 0.10E+00   15.4     0.00104857       -47.1744901374 -8.58E-04
    63 Broy./Diag. 0.10E+00   14.8     0.00020221       -47.1688442395  5.65E-03
    64 Broy./Diag. 0.10E+00   16.1     0.00056934       -47.1645458373  4.30E-03
    65 Broy./Diag. 0.10E+00   15.6     0.00034404       -47.1655206446 -9.75E-04
    66 Broy./Diag. 0.10E+00   17.1     0.00053117       -47.1642482296  1.27E-03
    67 Broy./Diag. 0.10E+00   16.3     0.00036845       -47.1665390485 -2.29E-03
    68 Broy./Diag. 0.10E+00   17.1     0.00031939       -47.1659395162  6.00E-04
    69 Broy./Diag. 0.10E+00   14.0     0.00034396       -47.1673493818 -1.41E-03
    70 Broy./Diag. 0.10E+00   17.0     0.00007123       -47.1662057713  1.14E-03
    71 Broy./Diag. 0.10E+00   16.2     0.00004103       -47.1665051914 -2.99E-04
    72 Broy./Diag. 0.10E+00   17.7     0.00014043       -47.1662308098  2.74E-04
    73 Broy./Diag. 0.10E+00   16.7     0.00001534       -47.1663385250 -1.08E-04
    74 Broy./Diag. 0.10E+00   16.7     0.00005292       -47.1660402521  2.98E-04
    75 Broy./Diag. 0.10E+00   15.4     0.00002370       -47.1659496480  9.06E-05
    76 Broy./Diag. 0.10E+00   13.2     0.00003120       -47.1665494617 -6.00E-04
    77 Broy./Diag. 0.10E+00   15.1     0.00006974       -47.1665747071 -2.52E-05
    78 Broy./Diag. 0.10E+00   18.1     0.00001496       -47.1668523973 -2.78E-04
    79 Broy./Diag. 0.10E+00   17.9     0.00003604       -47.1671167070 -2.64E-04
    80 Broy./Diag. 0.10E+00   15.6     0.00004765       -47.1671782691 -6.16E-05
    81 Broy./Diag. 0.10E+00   13.9     0.00004841       -47.1667832410  3.95E-04
    82 Broy./Diag. 0.10E+00   16.0     0.00000682       -47.1668910838 -1.08E-04
    83 Broy./Diag. 0.10E+00   16.1     0.00000500       -47.1668932413 -2.16E-06
    84 Broy./Diag. 0.10E+00   14.5     0.00001486       -47.1669269245 -3.37E-05
    85 Broy./Diag. 0.10E+00   16.4     0.00000700       -47.1671113003 -1.84E-04
    86 Broy./Diag. 0.10E+00   16.6     0.00001002       -47.1672367647 -1.25E-04
    87 Broy./Diag. 0.10E+00   18.8     0.00000491       -47.1672455868 -8.82E-06
    88 Broy./Diag. 0.10E+00   15.3     0.00001285       -47.1672014881  4.41E-05
    89 Broy./Diag. 0.10E+00   17.6     0.00000688       -47.1672943712 -9.29E-05
    90 Broy./Diag. 0.10E+00   17.2     0.00000161       -47.1672831246  1.12E-05
    91 Broy./Diag. 0.10E+00   15.1     0.00000150       -47.1673042714 -2.11E-05
    92 Broy./Diag. 0.10E+00   16.3     0.00000438       -47.1671512742  1.53E-04
    93 Broy./Diag. 0.10E+00   16.4     0.00000283       -47.1670575930  9.37E-05
    94 Broy./Diag. 0.10E+00   16.7     0.00000628       -47.1669896285  6.80E-05
    95 Broy./Diag. 0.10E+00   14.9     0.00000383       -47.1669484692  4.12E-05
    96 Broy./Diag. 0.10E+00   15.4     0.00000264       -47.1669455368  2.93E-06
    97 Broy./Diag. 0.10E+00   16.8     0.00000766       -47.1669911329 -4.56E-05
    98 Broy./Diag. 0.10E+00   16.6     0.00000124       -47.1669772821  1.39E-05
    99 Broy./Diag. 0.10E+00   15.4     0.00000693       -47.1669381814  3.91E-05
   100 Broy./Diag. 0.10E+00   16.8     0.00000424       -47.1669631986 -2.50E-05

  Leaving inner SCF loop after reaching   100 steps.


  Electronic density on regular grids:         -9.0001207617       -0.0001207617
  Core density on regular grids:                9.0000000000       -0.0000000000
  Total charge density on r-space grids:       -0.0001207617
  Total charge density g-space grids:          -0.0001207617

  Overlap energy of the core charge distribution:               0.00000000000000
  Self energy of the core charge distribution:                -96.60649019442629
  Core Hamiltonian energy:                                     29.76404301723570
  Hartree energy:                                              26.72919222319224
  Exchange-correlation energy:                                 -7.05370478098907
  Dispersion energy:                                           -0.00000346358047
  Electronic entropic energy:                                  -0.00000000000000
  Fermi energy:                                                -0.04995044836325

  Total energy:                                               -47.16696319856790

  outer SCF iter =    1 RMS gradient =   0.42E-05 energy =        -47.1669631986
     1 Broy./Diag. 0.10E+00   35.2     0.00045664       -47.1669462293  1.70E-05
     2 Broy./Diag. 0.10E+00   16.8     0.00070539       -47.1675401830 -5.94E-04
     3 Broy./Diag. 0.10E+00   17.1     0.00023803       -47.1660528100  1.49E-03
     4 Broy./Diag. 0.10E+00   17.6     0.00006612       -47.1671244183 -1.07E-03
     5 Broy./Diag. 0.10E+00   17.2     0.00001856       -47.1672333037 -1.09E-04
     6 Broy./Diag. 0.10E+00   17.1     0.00000833       -47.1671777137  5.56E-05
     7 Broy./Diag. 0.10E+00   18.4     0.00000740       -47.1671241450  5.36E-05
     8 Broy./Diag. 0.10E+00   16.7     0.00000176       -47.1670695412  5.46E-05
     9 Broy./Diag. 0.10E+00   14.6     0.00000221       -47.1670496110  1.99E-05
    10 Broy./Diag. 0.10E+00   14.3     0.00003871       -47.1669236220  1.26E-04
    11 Broy./Diag. 0.10E+00   18.8     0.00001923       -47.1669517415 -2.81E-05
    12 Broy./Diag. 0.10E+00   16.0     0.00000679       -47.1669314035  2.03E-05
    13 Broy./Diag. 0.10E+00   18.1     0.00000505       -47.1669282288  3.17E-06
    14 Broy./Diag. 0.10E+00   15.2     0.00000441       -47.1669402445 -1.20E-05
    15 Broy./Diag. 0.10E+00   16.6     0.00000564       -47.1669291396  1.11E-05
    16 Broy./Diag. 0.10E+00   15.4     0.00000728       -47.1669374674 -8.33E-06
    17 Broy./Diag. 0.10E+00   14.8     0.00000141       -47.1669613695 -2.39E-05
    18 Broy./Diag. 0.10E+00   14.3     0.00000993       -47.1669788039 -1.74E-05
    19 Broy./Diag. 0.10E+00   15.9     0.00007319       -47.1670050859 -2.63E-05
    20 Broy./Diag. 0.10E+00   18.2     0.00000498       -47.1672952268 -2.90E-04
    21 Broy./Diag. 0.10E+00   14.9     0.00003339       -47.1673016775 -6.45E-06
    22 Broy./Diag. 0.10E+00   16.7     0.00001942       -47.1671866224  1.15E-04
    23 Broy./Diag. 0.10E+00   15.7     0.00001066       -47.1672942537 -1.08E-04
    24 Broy./Diag. 0.10E+00   15.7     0.00000704       -47.1672791904  1.51E-05
    25 Broy./Diag. 0.10E+00   14.9     0.00000304       -47.1671139639  1.65E-04
    26 Broy./Diag. 0.10E+00   16.7     0.00000154       -47.1670243011  8.97E-05
    27 Broy./Diag. 0.10E+00   14.8     0.00003093       -47.1670259169 -1.62E-06
    28 Broy./Diag. 0.10E+00   16.9     0.00003184       -47.1669433856  8.25E-05
    29 Broy./Diag. 0.10E+00   16.3     0.00003833       -47.1670885513 -1.45E-04
    30 Broy./Diag. 0.10E+00   15.2     0.00004042       -47.1672000254 -1.11E-04
    31 Broy./Diag. 0.10E+00   13.8     0.00000284       -47.1673356202 -1.36E-04
    32 Broy./Diag. 0.10E+00   16.9     0.00001880       -47.1672627234  7.29E-05
    33 Broy./Diag. 0.10E+00   16.7     0.00005792       -47.1673509507 -8.82E-05
    34 Broy./Diag. 0.10E+00   17.2     0.00001390       -47.1676741216 -3.23E-04
    35 Broy./Diag. 0.10E+00   14.9     0.00004548       -47.1677420342 -6.79E-05
    36 Broy./Diag. 0.10E+00   15.7     0.00000168       -47.1678571426 -1.15E-04
    37 Broy./Diag. 0.10E+00   17.3     0.00000821       -47.1677107344  1.46E-04
    38 Broy./Diag. 0.10E+00   16.5     0.00000410       -47.1674624885  2.48E-04
    39 Broy./Diag. 0.10E+00   14.9     0.00000821       -47.1672201166  2.42E-04
    40 Broy./Diag. 0.10E+00   15.5     0.00000083       -47.1671152734  1.05E-04
    41 Broy./Diag. 0.10E+00   15.8     0.00000562       -47.1670489835  6.63E-05
    42 Broy./Diag. 0.10E+00   18.8     0.00000212       -47.1669971150  5.19E-05
    43 Broy./Diag. 0.10E+00   14.3     0.00000624       -47.1669796213  1.75E-05
    44 Broy./Diag. 0.10E+00   15.3     0.00000029       -47.1669703227  9.30E-06

  *** SCF run converged in    44 steps ***


  Electronic density on regular grids:         -9.0001207563       -0.0001207563
  Core density on regular grids:                9.0000000000       -0.0000000000
  Total charge density on r-space grids:       -0.0001207563
  Total charge density g-space grids:          -0.0001207563

  Overlap energy of the core charge distribution:               0.00000000000000
  Self energy of the core charge distribution:                -96.60649019442629
  Core Hamiltonian energy:                                     29.76295247709233
  Hartree energy:                                              26.73008709890379
  Exchange-correlation energy:                                 -7.05351624064445
  Dispersion energy:                                           -0.00000346358047
  Electronic entropic energy:                                  -0.00000000000000
  Fermi energy:                                                -0.04842660529756

  Total energy:                                               -47.16697032265509

  outer SCF iter =    2 RMS gradient =   0.29E-06 energy =        -47.1669703227
  outer SCF loop converged in   2 iterations or  144 steps


  Integrated absolute spin density  :                               1.0000450199
  WARNING: S**2 computation does not yet treat fractional occupied orbitals

 *** WARNING in qs_loc_utils.F:1500 :: User requested the calculation of ***
 *** the localized wavefunction but the section LOCALIZE was not         ***
 *** specified. Localization will not be performed!                      ***


 -------------------------------------------------------------------------------
 -                                                                             -
 -  BSSE CALCULATION         FRAGMENT CONF: 11        FRAGMENT SUBCONF: 10     -
 -                           CHARGE =     0           MULTIPLICITY =     0     -
 -                                                                             -
 -                 ATOM INDEX                              ATOM NAME           -
 -                 ----------                              ---------           -
 -                      1                                   C                  -
 -                      2                                   C                  -
 -                      3                                   C                  -
 -                      4                                   C                  -
 -                      5                                   C                  -
 -                      6                                   C                  -
 -                      7                                   C                  -
 -                      8                                   C                  -
 -                      9                                   C                  -
 -                     10                                   C                  -
 -                     11                                   C                  -
 -                     12                                   C                  -
 -                     13                                   C                  -
 -                     14                                   C                  -
 -                     15                                   C                  -
 -                     16                                   C                  -
 -                     17                                   C                  -
 -                     18                                   C                  -
 -                     19                                   C                  -
 -                     20                                   C                  -
 -                     21                                   C                  -
 -                     22                                   C                  -
 -                     23                                   C                  -
 -                     24                                   C                  -
 -                     25                                   C                  -
 -                     26                                   C                  -
 -                     27                                   C                  -
 -                     28                                   C                  -
 -                     29                                   C                  -
 -                     30                                   C                  -
 -                     31                                   C                  -
 -                     32                                   C                  -
 -                     33                                   C                  -
 -                     34                                   C                  -
 -                     35                                   C                  -
 -                     36                                   C                  -
 -                     37                                   C                  -
 -                     38                                   C                  -
 -                     39                                   C                  -
 -                     40                                   C                  -
 -                     41                                   C                  -
 -                     42                                   C                  -
 -                     43                                   C                  -
 -                     44                                   C                  -
 -                     45                                   C                  -
 -                     46                                   C                  -
 -                     47                                   C                  -
 -                     48                                   C                  -
 -                     49                                   C                  -
 -                     50                                   C                  -
 -                     51                                   C                  -
 -                     52                                   C                  -
 -                     53                                   C                  -
 -                     54                                   C                  -
 -                     55                                   C                  -
 -                     56                                   C                  -
 -                     57                                   C                  -
 -                     58                                   C                  -
 -                     59                                   C                  -
 -                     60                                   C                  -
 -                     61                                   C                  -
 -                     62                                   C                  -
 -                     63                                   C                  -
 -                     64                                   C                  -
 -                     65                                   C                  -
 -                     66                                   C                  -
 -                     67                                   C                  -
 -                     68                                   C                  -
 -                     69                                   C                  -
 -                     70                                   C                  -
 -                     71                                   C                  -
 -                     72                                   C                  -
 -                     73                                   C                  -
 -                     74                                   C                  -
 -                     75                                   C                  -
 -                     76                                   C                  -
 -                     77                                   C                  -
 -                     78                                   C                  -
 -                     79                                   C                  -
 -                     80                                   C                  -
 -                     81                                   C                  -
 -                     82                                   C                  -
 -                     83                                   C                  -
 -                     84                                   C                  -
 -                     85                                   C                  -
 -                     86                                   C                  -
 -                     87                                   C                  -
 -                     88                                   C                  -
 -                     89                                   C                  -
 -                     90                                   C                  -
 -                     91                                   C                  -
 -                     92                                   C                  -
 -                     93                                   C                  -
 -                     94                                   C                  -
 -                     95                                   C                  -
 -                     96                                   C                  -
 -                     97                                   C                  -
 -                     98                                   C                  -
 -                     99                                   C                  -
 -                    100                                   C                  -
 -                    101                                   C                  -
 -                    102                                   C                  -
 -                    103                                   C                  -
 -                    104                                   C                  -
 -                    105                                   C                  -
 -                    106                                   C                  -
 -                    107                                   C                  -
 -                    108                                   C                  -
 -                    109                                   C                  -
 -                    110                                   C                  -
 -                    111                                   C                  -
 -                    112                                   C                  -
 -                    113                                   O                  -
 -                    114                                   H                  -
 -                    115                                   Na_ghost           -
 -------------------------------------------------------------------------------

 *******************************************************************************
 *******************************************************************************
 **                                                                           **
 **     #####                         ##              ##                      **
 **    ##   ##            ##          ##              ##                      **
 **   ##     ##                       ##            ######                    **
 **   ##     ##  ##   ##  ##   #####  ##  ##   ####   ##    #####    #####    **
 **   ##     ##  ##   ##  ##  ##      ## ##   ##      ##   ##   ##  ##   ##   **
 **   ##  ## ##  ##   ##  ##  ##      ####     ###    ##   ######   ######    **
 **    ##  ###   ##   ##  ##  ##      ## ##      ##   ##   ##       ##        **
 **     #######   #####   ##   #####  ##  ##  ####    ##    #####   ##        **
 **           ##                                                    ##        **
 **                                                                           **
 **                                                ... make the atoms dance   **
 **                                                                           **
 **            Copyright (C) by CP2K developers group (2000-2022)             **
 **                      J. Chem. Phys. 152, 194103 (2020)                    **
 **                                                                           **
 *******************************************************************************


 TOTAL NUMBERS AND MAXIMUM NUMBERS

  Total number of            - Atomic kinds:                                   4
                             - Atoms:                                        115
                             - Shell sets:                                   115
                             - Shells:                                       573
                             - Primitive Cartesian functions:                577
                             - Cartesian basis functions:                   1596
                             - Spherical basis functions:                   1483

  Maximum angular momentum of- Orbital basis functions:                        2
                             - Local part of the GTH pseudopotential:          2
                             - Non-local part of the GTH pseudopotential:      0


 SCF PARAMETERS         Density guess:                                    ATOMIC
                        --------------------------------------------------------
                        max_scf:                                             100
                        max_scf_history:                                       0
                        max_diis:                                              4
                        --------------------------------------------------------
                        eps_scf:                                        3.00E-07
                        eps_scf_history:                                0.00E+00
                        eps_diis:                                       1.00E-01
                        eps_eigval:                                     1.00E-05
                        --------------------------------------------------------
                        level_shift [a.u.]:                             0.000000
                        added MOs                                       100  100
                        --------------------------------------------------------
                        Mixing method:                            BROYDEN_MIXING
                                                charge density mixing in g-space
                        --------------------------------------------------------
                        Smear method:                                FERMI_DIRAC
                        Electronic temperature [K]:                        300.0
                        Electronic temperature [a.u.]:                  9.50E-04
                        Accuracy threshold:                             1.00E-10
                        --------------------------------------------------------
                        Outer loop SCF in use 
                        No variables optimised in outer loop
                        eps_scf                                         1.00E-06
                        max_scf                                               30
                        DIIS optimization
                        DIIS buffer length                                     3
                        step_size                                       5.00E-01

 Spin 1

 Number of electrons:                                                        228
 Number of occupied orbitals:                                                228
 Number of molecular orbitals:                                               328

 Spin 2

 Number of electrons:                                                        227
 Number of occupied orbitals:                                                227
 Number of molecular orbitals:                                               327

 Number of orbital functions:                                               1483
 Number of independent orbital functions:                                   1483

 Extrapolation method: initial_guess


 SCF WAVEFUNCTION OPTIMIZATION

  Step     Update method      Time    Convergence         Total energy    Change
  ------------------------------------------------------------------------------
     1 NoMix/Diag. 0.10E+00  192.6     0.47394322      -650.1224968394 -6.50E+02
     2 Broy./Diag. 0.10E+00  163.7     0.03136493      -623.8037054772  2.63E+01
     3 Broy./Diag. 0.10E+00  169.1     0.28442866      -641.1147205730 -1.73E+01
     4 Broy./Diag. 0.10E+00  174.2     0.03616692      -649.9846435716 -8.87E+00
     5 Broy./Diag. 0.10E+00  183.6     0.10013598      -652.4557464843 -2.47E+00
     6 Broy./Diag. 0.10E+00  201.4     0.00923893      -653.3136497557 -8.58E-01
     7 Broy./Diag. 0.10E+00  184.3     0.02210183      -653.4288622440 -1.15E-01
     8 Broy./Diag. 0.10E+00  194.6     0.00316796      -653.8885361821 -4.60E-01
     9 Broy./Diag. 0.10E+00  204.5     0.01001608      -654.0993833785 -2.11E-01
    10 Broy./Diag. 0.10E+00  188.1     0.00402747      -654.2945878379 -1.95E-01
    11 Broy./Diag. 0.10E+00  183.4     0.00152956      -654.3745418000 -8.00E-02
    12 Broy./Diag. 0.10E+00  201.1     0.00152457      -654.4443460915 -6.98E-02
    13 Broy./Diag. 0.10E+00  177.1     0.00355245      -654.4625790788 -1.82E-02
    14 Broy./Diag. 0.10E+00  209.7     0.00186290      -654.4742509799 -1.17E-02
    15 Broy./Diag. 0.10E+00  189.1     0.00113033      -654.4780228071 -3.77E-03
    16 Broy./Diag. 0.10E+00  171.1     0.00809210      -654.4679843565  1.00E-02
    17 Broy./Diag. 0.10E+00  192.4     0.00288887      -654.4780387965 -1.01E-02
    18 Broy./Diag. 0.10E+00  197.3     0.00037935      -654.4752141422  2.82E-03
    19 Broy./Diag. 0.10E+00  203.2     0.00063853      -654.4733271493  1.89E-03
    20 Broy./Diag. 0.10E+00  183.4     0.00065065      -654.4793746018 -6.05E-03
    21 Broy./Diag. 0.10E+00  207.7     0.00230240      -654.5010371837 -2.17E-02
    22 Broy./Diag. 0.10E+00  203.2     0.00052091      -654.5112695966 -1.02E-02
    23 Broy./Diag. 0.10E+00  180.0     0.00387437      -654.5112104556  5.91E-05
    24 Broy./Diag. 0.10E+00  220.0     0.00356634      -654.5103869147  8.24E-04
    25 Broy./Diag. 0.10E+00  178.8     0.00120329      -654.5165214618 -6.13E-03
    26 Broy./Diag. 0.10E+00  210.4     0.00295296      -654.5144711262  2.05E-03
    27 Broy./Diag. 0.10E+00  180.0     0.00352817      -654.5154492040 -9.78E-04
    28 Broy./Diag. 0.10E+00  200.4     0.00033146      -654.5173546096 -1.91E-03
    29 Broy./Diag. 0.10E+00  187.3     0.00029927      -654.5147994292  2.56E-03
    30 Broy./Diag. 0.10E+00  151.2     0.00023095      -654.5132652113  1.53E-03
    31 Broy./Diag. 0.10E+00  206.9     0.00030797      -654.5159494267 -2.68E-03
    32 Broy./Diag. 0.10E+00  197.9     0.00059812      -654.5224178547 -6.47E-03
    33 Broy./Diag. 0.10E+00  185.9     0.00084341      -654.5235212428 -1.10E-03
    34 Broy./Diag. 0.10E+00  196.4     0.00032148      -654.5225185798  1.00E-03
    35 Broy./Diag. 0.10E+00  183.3     0.00037666      -654.5215746144  9.44E-04
    36 Broy./Diag. 0.10E+00  192.9     0.00059026      -654.5211960888  3.79E-04
    37 Broy./Diag. 0.10E+00  188.4     0.00045648      -654.5215084980 -3.12E-04
    38 Broy./Diag. 0.10E+00  194.5     0.00005409      -654.5214312079  7.73E-05
    39 Broy./Diag. 0.10E+00  180.5     0.00008303      -654.5213312575  1.00E-04
    40 Broy./Diag. 0.10E+00  196.4     0.00018374      -654.5213321272 -8.70E-07
    41 Broy./Diag. 0.10E+00  182.3     0.00018634      -654.5213729602 -4.08E-05
    42 Broy./Diag. 0.10E+00  183.8     0.00020663      -654.5214868855 -1.14E-04
    43 Broy./Diag. 0.10E+00  196.2     0.00081832      -654.5216172585 -1.30E-04
    44 Broy./Diag. 0.10E+00  192.2     0.00002705      -654.5216432646 -2.60E-05
    45 Broy./Diag. 0.10E+00  175.0     0.00013807      -654.5216273084  1.60E-05
    46 Broy./Diag. 0.10E+00  194.7     0.00013534      -654.5215233568  1.04E-04
    47 Broy./Diag. 0.10E+00  185.1     0.00176669      -654.5216923422 -1.69E-04
    48 Broy./Diag. 0.10E+00  201.3     0.00101999      -654.5218962273 -2.04E-04
    49 Broy./Diag. 0.10E+00  177.4     0.00016269      -654.5218953254  9.02E-07
    50 Broy./Diag. 0.10E+00  190.7     0.00055496      -654.5218951523  1.73E-07
    51 Broy./Diag. 0.10E+00  198.4     0.00023526      -654.5221441539 -2.49E-04
    52 Broy./Diag. 0.10E+00  176.8     0.00013096      -654.5223197587 -1.76E-04
    53 Broy./Diag. 0.10E+00  172.8     0.00013419      -654.5224454894 -1.26E-04
    54 Broy./Diag. 0.10E+00  188.3     0.00007028      -654.5226812075 -2.36E-04
    55 Broy./Diag. 0.10E+00  201.1     0.00013349      -654.5226039368  7.73E-05
    56 Broy./Diag. 0.10E+00  164.7     0.00018148      -654.5224620979  1.42E-04
    57 Broy./Diag. 0.10E+00  179.0     0.00015743      -654.5223804946  8.16E-05
    58 Broy./Diag. 0.10E+00  178.9     0.00011937      -654.5224372171 -5.67E-05
[...]
 *** the localized wavefunction but the section LOCALIZE was not         ***
 *** specified. Localization will not be performed!                      ***


 -------------------------------------------------------------------------------
 -                                                                             -
 -                                 BSSE RESULTS                                -
 -                                                                             -
 -                 CP-corrected Total energy:     -701.776268                  -
 -                                                                             -
 -                       1-body contribution:     -654.519514                  -
 -                       1-body contribution:      -47.166970                  -
 -                                                                             -
 -                       2-body contribution:       -0.089783                  -
 -                 BSSE-free interaction energy:       -0.089783               -
 -------------------------------------------------------------------------------

 -------------------------------------------------------------------------------
 -                                                                             -
 -                                DBCSR STATISTICS                             -
 -                                                                             -
 -------------------------------------------------------------------------------
 COUNTER                                    TOTAL       BLAS       SMM       ACC
 flops     5 x     5 x     8               110000     100.0%      0.0%      0.0%
 flops     5 x     5 x     9               123750     100.0%      0.0%      0.0%
 flops     9 x     5 x     8               198000     100.0%      0.0%      0.0%
 flops     9 x     5 x     9               222750     100.0%      0.0%      0.0%
 flops     9 x     9 x     8               356400     100.0%      0.0%      0.0%
 flops     5 x     5 x    76               418000     100.0%      0.0%      0.0%
 flops     9 x     5 x    76               752400     100.0%      0.0%      0.0%
 flops     9 x     9 x     9               820854     100.0%      0.0%      0.0%
 flops     9 x     5 x    71               920160     100.0%      0.0%      0.0%
 flops     9 x     5 x    72               933120     100.0%      0.0%      0.0%
 flops     5 x     5 x    71               958500     100.0%      0.0%      0.0%
 flops     5 x     5 x    72               972000     100.0%      0.0%      0.0%
 flops     9 x     9 x    76              1354320     100.0%      0.0%      0.0%
 flops     9 x     9 x    71              1656288     100.0%      0.0%      0.0%
 flops     9 x     9 x    72              1679616     100.0%      0.0%      0.0%
 flops     5 x     5 x    64              2080000     100.0%      0.0%      0.0%
 flops     9 x     5 x    64              2292480     100.0%      0.0%      0.0%
 flops     5 x     5 x    32              2640000     100.0%      0.0%      0.0%
 flops     9 x     9 x    64              4126464     100.0%      0.0%      0.0%
 flops     9 x     5 x    32              4752000     100.0%      0.0%      0.0%
 flops     5 x     5 x    96              6240000     100.0%      0.0%      0.0%
 flops     9 x     5 x    96              6877440     100.0%      0.0%      0.0%
 flops     9 x     9 x    32              8553600     100.0%      0.0%      0.0%
 flops     9 x     9 x    96             12379392     100.0%      0.0%      0.0%
 flops    13 x     5 x     8             16016000     100.0%      0.0%      0.0%
 flops     5 x    13 x     8             16302000     100.0%      0.0%      0.0%
 flops    13 x     5 x     9             18018000     100.0%      0.0%      0.0%
 flops     5 x    13 x     9             18339750     100.0%      0.0%      0.0%
 flops     9 x    13 x     8             28828800     100.0%      0.0%      0.0%
 flops    13 x     9 x     8             29343600     100.0%      0.0%      0.0%
 flops     9 x    13 x     9             32432400     100.0%      0.0%      0.0%
 flops    13 x     9 x     9             33011550     100.0%      0.0%      0.0%
 flops    13 x     5 x    76             60860800     100.0%      0.0%      0.0%
 flops     5 x    13 x    76             61947600     100.0%      0.0%      0.0%
 flops     9 x    13 x    76            109549440     100.0%      0.0%      0.0%
 flops    13 x     9 x    76            111505680     100.0%      0.0%      0.0%
 flops     9 x    13 x    71            133975296     100.0%      0.0%      0.0%
 flops     9 x    13 x    72            135862272     100.0%      0.0%      0.0%
 flops    13 x     9 x    71            136367712     100.0%      0.0%      0.0%
 flops    13 x     9 x    72            138288384     100.0%      0.0%      0.0%
 flops    13 x     5 x    71            139557600     100.0%      0.0%      0.0%
 flops    13 x     5 x    72            141523200     100.0%      0.0%      0.0%
 flops     5 x    13 x    71            142049700     100.0%      0.0%      0.0%
 flops     5 x    13 x    72            144050400     100.0%      0.0%      0.0%
 flops    13 x     5 x    64            302848000     100.0%      0.0%      0.0%
 flops     5 x    13 x    64            308256000     100.0%      0.0%      0.0%
 flops     9 x    13 x    64            333785088     100.0%      0.0%      0.0%
 flops    13 x     9 x    64            339745536     100.0%      0.0%      0.0%
 flops    13 x     5 x    32            384384000     100.0%      0.0%      0.0%
 flops     5 x    13 x    32            391248000     100.0%      0.0%      0.0%
 flops     9 x    13 x    32            691891200     100.0%      0.0%      0.0%
 flops    13 x     9 x    32            704246400     100.0%      0.0%      0.0%
 flops    13 x     5 x    96            908544000     100.0%      0.0%      0.0%
 flops     5 x    13 x    96            924768000     100.0%      0.0%      0.0%
 flops     9 x    13 x    96           1001355264     100.0%      0.0%      0.0%
 flops    13 x     9 x    96           1019236608     100.0%      0.0%      0.0%
 flops    13 x    13 x     8           4789527600     100.0%      0.0%      0.0%
 flops    13 x    13 x     9           5388218550     100.0%      0.0%      0.0%
 flops    13 x    13 x    76          18200204880     100.0%      0.0%      0.0%
 flops    13 x    13 x    71          41734201860     100.0%      0.0%      0.0%
 flops    13 x    13 x    72          42322007520     100.0%      0.0%      0.0%
 flops    13 x    13 x    64          90565612800     100.0%      0.0%      0.0%
 flops    13 x    13 x    32         114948662400     100.0%      0.0%      0.0%
 flops    13 x    13 x    96         271696838400     100.0%      0.0%      0.0%
 flops inhomo. stacks                           0       0.0%      0.0%      0.0%
 flops total                       598.664830E+09     100.0%      0.0%      0.0%
 flops max/rank                     39.822340E+09     100.0%      0.0%      0.0%
 matmuls inhomo. stacks                         0       0.0%      0.0%      0.0%
 matmuls total                           31900368     100.0%      0.0%      0.0%
 number of processed stacks                149616     100.0%      0.0%      0.0%
 average stack size                                   213.2       0.0       0.0
 marketing flops                   662.594257E+09
 -------------------------------------------------------------------------------
 # multiplications                           1488
 max memory usage/rank             917.250048E+06
 # max total images/rank                        1
 # max 3D layers                                1
 # MPI messages exchanged                  142848
 MPI messages size (bytes):
  total size                        19.245306E+09
  min size                           0.000000E+00
  max size                         289.536000E+03
  average size                     134.725766E+03
 MPI breakdown and total messages size (bytes):
             size <=      128               25920                        0
       128 < size <=     8192                1728                  1119744
      8192 < size <=    32768               13200                332785200
     32768 < size <=   131072               39600               3758515200
    131072 < size <=  4194304               62400              15152877120
   4194304 < size <= 16777216                   0                        0
  16777216 < size                               0                        0
 -------------------------------------------------------------------------------
 -                                                                             -
 -                      DBCSR MESSAGE PASSING PERFORMANCE                      -
 -                                                                             -
 -------------------------------------------------------------------------------
 ROUTINE             CALLS      AVE VOLUME [Bytes]
 MP_Bcast               65                     12.
 MP_Allreduce        10573                      8.
 MP_Alltoall         41724                 226030.
 MP_ISend            23808                  55876.
 MP_IRecv            23808                  47523.
 -------------------------------------------------------------------------------

 -------------------------------------------------------------------------------
 -                                                                             -
 -                                DBM STATISTICS                               -
 -                                                                             -
 -------------------------------------------------------------------------------
    M  x    N  x    K                                          COUNT     PERCENT
 -------------------------------------------------------------------------------

 -------------------------------------------------------------------------------
 -                                                                             -
 -                                GRID STATISTICS                              -
 -                                                                             -
 -------------------------------------------------------------------------------
 LP    KERNEL             BACKEND                              COUNT     PERCENT
 4     collocate general  REF                               80167712      48.48%
 4     integrate general  REF                               79636800      48.16%
 3     collocate general  REF                                2671648       1.62%
 3     integrate general  REF                                2654400       1.61%
 2     collocate general  REF                                 115006       0.07%
 2     integrate general  REF                                 114264       0.07%
 0     collocate general  REF                                   5520       0.00%
 -------------------------------------------------------------------------------

 MEMORY| Estimated peak process memory [MiB]                                 875

 -------------------------------------------------------------------------------
 -                                                                             -
 -                         MESSAGE PASSING PERFORMANCE                         -
 -                                                                             -
 -------------------------------------------------------------------------------

 ROUTINE             CALLS      AVE VOLUME [Bytes]
 MP_Group               24
 MP_Bcast             2478                 738872.
 MP_Allreduce        15510                    345.
 MP_Sync              1800
 MP_Alltoall         18705               14659886.
 MP_SendRecv         85266                 355987.
 MP_ISendRecv        66960                 362400.
 MP_Wait             99861
 MP_comm_split         288
 MP_ISend            23928                3021638.
 MP_IRecv            23928                3021742.
 MP_Recv               476                 341947.
 -------------------------------------------------------------------------------


 -------------------------------------------------------------------------------
 -                                                                             -
 -                           R E F E R E N C E S                               -
 -                                                                             -
 -------------------------------------------------------------------------------
 
 CP2K version 2023.1, the CP2K developers group (2023).
 CP2K is freely available from https://www.cp2k.org/ .

 Kuehne,Thomas D.; Iannuzzi,Marcella; Del Ben,Mauro;
 Rybkin,Vladimir V.; Seewald,Patrick; Stein,Frederick; Laino,Teodoro;
 Khaliullin,Rustam Z.; Schuett,Ole; Schiffmann,Florian; Golze,Dorothea;
 Wilhelm,Jan; Chulkov,Sergey; Bani-Hashemian,Mohammad Hossein;
 Weber,Valery; Borstnik,Urban; Taillefumier,Mathieu;
 Jakobovits,Alice Shoshana; Lazzaro,Alfio; Pabst,Hans; Mueller,Tiziano;
 Schade,Robert; Guidon,Manuel; Andermatt,Samuel; Holmberg,Nico;
 Schenter,Gregory K.; Hehn,Anna; Bussy,Augustin; Belleflamme,Fabian;
 Tabacchi,Gloria; Gloess,Andreas; Lass,Michael; Bethune,Iain;
 Mundy,Christopher J.; Plessl,Christian; Watkins,Matt;
 VandeVondele,Joost; Krack,Matthias; Hutter,Juerg. 
 The Journal of Chemical Physics, 152 (19), (2020). 
 CP2K: An electronic structure and molecular dynamics software package -
 Quickstep: Efficient and accurate electronic structure calculations.
 https://doi.org/10.1063/5.0007045

 Goerigk, Lars; Hansen, Andreas; Bauer, Christoph; Ehrlich, Stephan;
 Najibi, Asim; Grimme, Stefan. , 19 (48), (2017). 
 A look at the density functional theory zoo with the advanced GMTKN55 database
 for general main group thermochemistry, kinetics and noncovalent interactions.
 https://doi.org/10.1039/C7CP04913G

 Schuett, Ole; Messmer, Peter; Hutter, Juerg; VandeVondele, Joost. 
 Electronic Structure Calculations on Graphics Processing Units, John
 Wiley & Sons, Ltd, 173-190 (2016). 
 GPU-Accelerated Sparse Matrix-Matrix Multiplication for
 Linear Scaling Density Functional Theory.
 https://doi.org/10.1002/9781118670712.ch8

 Borstnik, U; VandeVondele, J; Weber, V; Hutter, J. 
 PARALLEL COMPUTING, 40 (5-6), 47-58 (2014). 
 Sparse matrix multiplication: The distributed block-compressed sparse
 row library.
 https://doi.org/10.1016/j.parco.2014.03.012

 Hutter, J; Iannuzzi, M; Schiffmann, F; VandeVondele, J. 
 WIREs Comput Mol Sci., 4 (1), 15-25 (2014). 
 CP2K: atomistic simulations of condensed matter systems.
 https://doi.org/10.1002/wcms.1159

 Marek, A; Blum, V; Johanni, R; Havu, V; Lang, B; Auckenthaler, T;
 Heinecke, A; Bungartz, H; Lederer, H. 
 Journal of Physics: Condensed Matter, 26 (21), (2014). 
 The ELPA library: scalable parallel eigenvalue solutions for
 electronic structure
 theory and computational science.
 https://doi.org/10.1088/0953-8984/26/21/213201

 Grimme, S; Ehrlich, S; Goerigk, L. 
 JOURNAL OF COMPUTATIONAL CHEMISTRY, 32, 1456 (2011). 
 Effect of the damping function in dispersion corrected density functional theory.
 https://doi.org/10.1002/jcc.21759

 Grimme, S; Antony, J; Ehrlich, S; Krieg, H. 
 JOURNAL OF CHEMICAL PHYSICS, 132 (15), 154104 (2010). 
 A consistent and accurate ab initio parametrization of density
 functional dispersion correction (DFT-D) for the 94 elements H-Pu.
 https://doi.org/10.1063/1.3382344

 VandeVondele, J; Hutter, J. 
 JOURNAL OF CHEMICAL PHYSICS, 127 (11), 114105 (2007). 
 Gaussian basis sets for accurate calculations on molecular systems in
 gas and condensed phases.
 https://doi.org/10.1063/1.2770708

 Krack, M. 
 THEORETICAL CHEMISTRY ACCOUNTS, 114 (1-3), 145-152 (2005). 
 Pseudopotentials for H to Kr optimized for gradient-corrected
 exchange-correlation functionals.
 https://doi.org/10.1007/s00214-005-0655-y

 VandeVondele, J; Krack, M; Mohamed, F; Parrinello, M; Chassaing, T;
 Hutter, J. COMPUTER PHYSICS COMMUNICATIONS, 167 (2), 103-128 (2005). 
 QUICKSTEP: Fast and accurate density functional calculations using a
 mixed Gaussian and plane waves approach.
 https://doi.org/10.1016/j.cpc.2004.12.014

 Frigo, M; Johnson, SG. 
 PROCEEDINGS OF THE IEEE, 93 (2), 216-231 (2005). 
 The design and implementation of FFTW3.
 https://doi.org/10.1109/JPROC.2004.840301

 Hartwigsen, C; Goedecker, S; Hutter, J. 
 PHYSICAL REVIEW B, 58 (7), 3641-3662 (1998). 
 Relativistic separable dual-space Gaussian pseudopotentials from H to Rn.
 https://doi.org/10.1103/PhysRevB.58.3641

 Lippert, G; Hutter, J; Parrinello, M. 
 MOLECULAR PHYSICS, 92 (3), 477-487 (1997). 
 A hybrid Gaussian and plane wave density functional scheme.
 https://doi.org/10.1080/002689797170220

 Perdew, JP; Burke, K; Ernzerhof, M. 
 PHYSICAL REVIEW LETTERS, 77 (18), 3865-3868 (1996). 
 Generalized gradient approximation made simple.
 https://doi.org/10.1103/PhysRevLett.77.3865

 Goedecker, S; Teter, M; Hutter, J. 
 PHYSICAL REVIEW B, 54 (3), 1703-1710 (1996). 
 Separable dual-space Gaussian pseudopotentials.
 https://doi.org/10.1103/PhysRevB.54.1703


 -------------------------------------------------------------------------------
 -                                                                             -
 -                                T I M I N G                                  -
 -                                                                             -
 -------------------------------------------------------------------------------
 SUBROUTINE                       CALLS  ASD         SELF TIME        TOTAL TIME
                                MAXIMUM       AVERAGE  MAXIMUM  AVERAGE  MAXIMUM
 CP2K                                 1  1.0     1.77     1.81 83830.61 83830.64
 qs_energies                          5  2.0     0.01     0.01 83803.39 83803.45
 scf_env_do_scf                       5  3.0     0.01     0.02 83758.74 83759.06
 scf_env_do_scf_inner_loop          744  4.0     0.03     0.08 83758.72 83759.04
 qs_scf_new_mos                     744  5.0     0.03     0.05 75416.76 75419.27
 eigensolver                       1488  6.0     0.12     0.14 73377.65 73385.39
 cp_fm_diag_elpa                   1200  7.0     0.01     0.01 67706.28 67728.86
 cp_fm_diag_elpa_base              1200  8.0 67640.15 67657.97 67659.73 67662.61
 cp_fm_triangular_multiply         4464  7.0  5019.75  5063.33  5019.75  5063.33
 qs_ks_update_qs_env                744  5.0     0.01     0.01  4089.12  4090.57
 rebuild_ks_matrix                  744  6.0     0.01     0.02  4012.32  4013.07
 qs_ks_build_kohn_sham_matrix       744  7.0     0.15     0.20  4012.31  4013.07
 qs_rho_update_rho_low              749  5.0     0.01     0.01  3340.34  3342.74
 calculate_rho_elec                1498  6.0     6.83     8.05  3340.33  3342.73
 sum_up_and_integrate               744  8.0     7.37     8.01  3115.94  3117.00
 integrate_v_rspace                1488  9.0     0.06     0.11  3108.56  3110.09
 rs_pw_transfer                   11949  9.5     0.23     0.27  2875.87  2906.30
 density_rs2pw                     1498  7.0     0.11     0.16  1939.43  1976.80
 potential_pw2rs                   1488 10.0     0.29     0.36  1692.38  1694.27
 -------------------------------------------------------------------------------

 The number of warnings for this run is : 7
 
 -------------------------------------------------------------------------------
  **** **** ******  **  PROGRAM ENDED AT                 2025-08-25 21:01:22.028
 ***** ** ***  *** **   PROGRAM RAN ON                                sebnode128
 **    ****   ******    PROGRAM RAN BY                                    luehrs
 ***** **    ** ** **   PROGRAM PROCESS ID                               2907902
  **** **  *******  **  PROGRAM STOPPED IN /home/luehrs/PhD/Sodium_batteries/Sod
                                           ium-graphene-functional_groups/Alcoho
                                           l
