 DBCSR| CPU Multiplication driver                                           BLAS (U)
 DBCSR| Multrec recursion limit                                              512 (U)
 DBCSR| Multiplication stack size                                           1000 (D)
 DBCSR| Maximum elements for images                                    UNLIMITED (U)
 DBCSR| Multiplicative factor virtual images                                   1 (U)
 DBCSR| Use multiplication densification                                       T (D)
 DBCSR| Multiplication size stacks                                             3 (U)
 DBCSR| Use memory pool for CPU allocation                                     F (U)
 DBCSR| Number of 3D layers                                               SINGLE (U)
 DBCSR| Use MPI memory allocation                                              F (U)
 DBCSR| Use RMA algorithm                                                      F (U)
 DBCSR| Use Communication thread                                               T (U)
 DBCSR| Communication thread load                                             87 (D)
 DBCSR| MPI: My process id                                                     0
 DBCSR| MPI: Number of processes                                              16
 DBCSR| OMP: Current number of threads                                         1
 DBCSR| OMP: Max number of threads                                             1
 DBCSR| Split modifier for TAS multiplication algorithm                  1.0E+00 (U)


  **** **** ******  **  PROGRAM STARTED AT               2025-07-09 14:55:59.261
 ***** ** ***  *** **   PROGRAM STARTED ON                            sebnode130
 **    ****   ******    PROGRAM STARTED BY                                luehrs
 ***** **    ** ** **   PROGRAM PROCESS ID                               1115926
  **** **  *******  **  PROGRAM STARTED IN /home/luehrs/PhD/Sodium_batteries/Sod
                                           ium-graphene-curvature/Curved_surface
                                           _convex/Zig-Zag1

 CP2K| version string:                                       CP2K version 2023.1
 CP2K| source code revision number:                                  git:b888bd8
 CP2K| cp2kflags: omp libint fftw3 libxc elpa parallel scalapack spglib         
 CP2K| is freely available from                            https://www.cp2k.org/
 CP2K| Program compiled at                          Tue Jan 10 19:52:03 UTC 2023
 CP2K| Program compiled on                                            x86-ubc-01
 CP2K| Program compiled for                                Linux-x86_64-gfortran
 CP2K| Data directory path                                       /usr/share/cp2k
 CP2K| Input file name                                            input.BSSE.inp

 GLOBAL| Force Environment number                                              1
 GLOBAL| Basis set file name                                      ./BASIS_MOLOPT
 GLOBAL| Potential file name                                    ./GTH_POTENTIALS
 GLOBAL| MM Potential file name                                     MM_POTENTIAL
 GLOBAL| Coordinate file name                       coords_sur_1_PBE_relaxed.xyz
 GLOBAL| Method name                                                        CP2K
 GLOBAL| Project name                                        curv_sur_1_BSSE_PBE
 GLOBAL| Run type                                                           BSSE
 GLOBAL| FFT library                                                       FFTW3
 GLOBAL| Diagonalization library                                            ELPA
 GLOBAL| DGEMM library                                                      BLAS
 GLOBAL| Minimum number of eigenvectors for ELPA usage                        16
 GLOBAL| Orthonormality check for eigenvectors                          DISABLED
 GLOBAL| Matrix multiplication library                                 ScaLAPACK
 GLOBAL| All-to-all communication in single precision                          F
 GLOBAL| FFTs using library dependent lengths                                  F
 GLOBAL| Grid backend                                                       AUTO
 GLOBAL| Global print level                                                  LOW
 GLOBAL| MPI I/O enabled                                                       T
 GLOBAL| Total number of message passing processes                            16
 GLOBAL| Number of threads for this process                                    1
 GLOBAL| This output is from process                                           0
 GLOBAL| Stack size for threads created by OpenMP (OMP_STACKSIZE)        default
 GLOBAL| CPU model name                          AMD EPYC 7513 32-Core Processor

 MEMORY| system memory details [Kb]
 MEMORY|                        rank 0           min           max       average
 MEMORY| MemTotal            131832644     131832644     131832644     131832644
 MEMORY| MemFree             127177168     127177168     127177168     127177168
 MEMORY| Buffers                379796        379796        379796        379796
 MEMORY| Cached                 438576        438576        438576        438576
 MEMORY| Slab                   856976        856976        856976        856976
 MEMORY| SReclaimable           170392        170392        170392        170392
 MEMORY| MemLikelyFree       128165932     128165932     128165932     128165932


 GENERATE|  Preliminary Number of Bonds generated:                             0
 GENERATE|  Achieved consistency in connectivity generation.

 *******************************************************************************
 *******************************************************************************
 **                                                                           **
 **     #####                         ##              ##                      **
 **    ##   ##            ##          ##              ##                      **
 **   ##     ##                       ##            ######                    **
 **   ##     ##  ##   ##  ##   #####  ##  ##   ####   ##    #####    #####    **
 **   ##     ##  ##   ##  ##  ##      ## ##   ##      ##   ##   ##  ##   ##   **
 **   ##  ## ##  ##   ##  ##  ##      ####     ###    ##   ######   ######    **
 **    ##  ###   ##   ##  ##  ##      ## ##      ##   ##   ##       ##        **
 **     #######   #####   ##   #####  ##  ##  ####    ##    #####   ##        **
 **           ##                                                    ##        **
 **                                                                           **
 **                                                ... make the atoms dance   **
 **                                                                           **
 **            Copyright (C) by CP2K developers group (2000-2022)             **
 **                      J. Chem. Phys. 152, 194103 (2020)                    **
 **                                                                           **
 *******************************************************************************


 TOTAL NUMBERS AND MAXIMUM NUMBERS

  Total number of            - Atomic kinds:                                   2
                             - Atoms:                                        225
                             - Shell sets:                                   225
                             - Shells:                                      1125
                             - Primitive Cartesian functions:               1127
                             - Cartesian basis functions:                   3145
                             - Spherical basis functions:                   2921

  Maximum angular momentum of- Orbital basis functions:                        2
                             - Local part of the GTH pseudopotential:          2
                             - Non-local part of the GTH pseudopotential:      1


 SCF PARAMETERS         Density guess:                                    ATOMIC
                        --------------------------------------------------------
                        max_scf:                                             100
                        max_scf_history:                                       0
                        max_diis:                                              4
                        --------------------------------------------------------
                        eps_scf:                                        3.00E-07
                        eps_scf_history:                                0.00E+00
                        eps_diis:                                       1.00E-01
                        eps_eigval:                                     1.00E-05
                        --------------------------------------------------------
                        level_shift [a.u.]:                             0.000000
                        added MOs                                       100    0
                        --------------------------------------------------------
                        Mixing method:                            BROYDEN_MIXING
                                                charge density mixing in g-space
                        --------------------------------------------------------
                        Smear method:                                FERMI_DIRAC
                        Electronic temperature [K]:                        300.0
                        Electronic temperature [a.u.]:                  9.50E-04
                        Accuracy threshold:                             1.00E-10
                        --------------------------------------------------------
                        Outer loop SCF in use 
                        No variables optimised in outer loop
                        eps_scf                                         1.00E-06
                        max_scf                                               30
                        DIIS optimization
                        DIIS buffer length                                     3
                        step_size                                       5.00E-01

 -------------------------------------------------------------------------------
 -                                                                             -
 -  BSSE CALCULATION         FRAGMENT CONF: 10        FRAGMENT SUBCONF: 10     -
 -                           CHARGE =     0           MULTIPLICITY =     0     -
 -                                                                             -
 -                 ATOM INDEX                              ATOM NAME           -
 -                 ----------                              ---------           -
 -                      1                                   C                  -
 -                      2                                   C                  -
 -                      3                                   C                  -
 -                      4                                   C                  -
 -                      5                                   C                  -
 -                      6                                   C                  -
 -                      7                                   C                  -
 -                      8                                   C                  -
 -                      9                                   C                  -
 -                     10                                   C                  -
 -                     11                                   C                  -
 -                     12                                   C                  -
 -                     13                                   C                  -
 -                     14                                   C                  -
 -                     15                                   C                  -
 -                     16                                   C                  -
 -                     17                                   C                  -
 -                     18                                   C                  -
 -                     19                                   C                  -
 -                     20                                   C                  -
 -                     21                                   C                  -
 -                     22                                   C                  -
 -                     23                                   C                  -
 -                     24                                   C                  -
 -                     25                                   C                  -
 -                     26                                   C                  -
 -                     27                                   C                  -
 -                     28                                   C                  -
 -                     29                                   C                  -
 -                     30                                   C                  -
 -                     31                                   C                  -
 -                     32                                   C                  -
 -                     33                                   C                  -
 -                     34                                   C                  -
 -                     35                                   C                  -
 -                     36                                   C                  -
 -                     37                                   C                  -
 -                     38                                   C                  -
 -                     39                                   C                  -
 -                     40                                   C                  -
 -                     41                                   C                  -
 -                     42                                   C                  -
 -                     43                                   C                  -
 -                     44                                   C                  -
 -                     45                                   C                  -
 -                     46                                   C                  -
 -                     47                                   C                  -
 -                     48                                   C                  -
 -                     49                                   C                  -
 -                     50                                   C                  -
 -                     51                                   C                  -
 -                     52                                   C                  -
 -                     53                                   C                  -
 -                     54                                   C                  -
 -                     55                                   C                  -
 -                     56                                   C                  -
 -                     57                                   C                  -
 -                     58                                   C                  -
 -                     59                                   C                  -
 -                     60                                   C                  -
 -                     61                                   C                  -
 -                     62                                   C                  -
 -                     63                                   C                  -
 -                     64                                   C                  -
 -                     65                                   C                  -
 -                     66                                   C                  -
 -                     67                                   C                  -
 -                     68                                   C                  -
 -                     69                                   C                  -
 -                     70                                   C                  -
 -                     71                                   C                  -
 -                     72                                   C                  -
 -                     73                                   C                  -
 -                     74                                   C                  -
 -                     75                                   C                  -
 -                     76                                   C                  -
 -                     77                                   C                  -
 -                     78                                   C                  -
 -                     79                                   C                  -
 -                     80                                   C                  -
 -                     81                                   C                  -
 -                     82                                   C                  -
 -                     83                                   C                  -
 -                     84                                   C                  -
 -                     85                                   C                  -
 -                     86                                   C                  -
 -                     87                                   C                  -
 -                     88                                   C                  -
 -                     89                                   C                  -
 -                     90                                   C                  -
 -                     91                                   C                  -
 -                     92                                   C                  -
 -                     93                                   C                  -
 -                     94                                   C                  -
 -                     95                                   C                  -
 -                     96                                   C                  -
 -                     97                                   C                  -
 -                     98                                   C                  -
 -                     99                                   C                  -
 -                    100                                   C                  -
 -                    101                                   C                  -
 -                    102                                   C                  -
 -                    103                                   C                  -
 -                    104                                   C                  -
 -                    105                                   C                  -
 -                    106                                   C                  -
 -                    107                                   C                  -
 -                    108                                   C                  -
 -                    109                                   C                  -
 -                    110                                   C                  -
 -                    111                                   C                  -
 -                    112                                   C                  -
 -                    113                                   C                  -
 -                    114                                   C                  -
 -                    115                                   C                  -
 -                    116                                   C                  -
 -                    117                                   C                  -
 -                    118                                   C                  -
 -                    119                                   C                  -
 -                    120                                   C                  -
 -                    121                                   C                  -
 -                    122                                   C                  -
 -                    123                                   C                  -
 -                    124                                   C                  -
 -                    125                                   C                  -
 -                    126                                   C                  -
 -                    127                                   C                  -
 -                    128                                   C                  -
 -                    129                                   C                  -
 -                    130                                   C                  -
 -                    131                                   C                  -
 -                    132                                   C                  -
 -                    133                                   C                  -
 -                    134                                   C                  -
 -                    135                                   C                  -
 -                    136                                   C                  -
 -                    137                                   C                  -
 -                    138                                   C                  -
 -                    139                                   C                  -
 -                    140                                   C                  -
 -                    141                                   C                  -
 -                    142                                   C                  -
 -                    143                                   C                  -
 -                    144                                   C                  -
 -                    145                                   C                  -
 -                    146                                   C                  -
 -                    147                                   C                  -
 -                    148                                   C                  -
 -                    149                                   C                  -
 -                    150                                   C                  -
 -                    151                                   C                  -
 -                    152                                   C                  -
 -                    153                                   C                  -
 -                    154                                   C                  -
 -                    155                                   C                  -
 -                    156                                   C                  -
 -                    157                                   C                  -
 -                    158                                   C                  -
 -                    159                                   C                  -
 -                    160                                   C                  -
 -                    161                                   C                  -
 -                    162                                   C                  -
 -                    163                                   C                  -
 -                    164                                   C                  -
 -                    165                                   C                  -
 -                    166                                   C                  -
 -                    167                                   C                  -
 -                    168                                   C                  -
 -                    169                                   C                  -
 -                    170                                   C                  -
 -                    171                                   C                  -
 -                    172                                   C                  -
 -                    173                                   C                  -
 -                    174                                   C                  -
 -                    175                                   C                  -
 -                    176                                   C                  -
 -                    177                                   C                  -
 -                    178                                   C                  -
 -                    179                                   C                  -
 -                    180                                   C                  -
 -                    181                                   C                  -
 -                    182                                   C                  -
 -                    183                                   C                  -
 -                    184                                   C                  -
 -                    185                                   C                  -
 -                    186                                   C                  -
 -                    187                                   C                  -
 -                    188                                   C                  -
 -                    189                                   C                  -
 -                    190                                   C                  -
 -                    191                                   C                  -
 -                    192                                   C                  -
 -                    193                                   C                  -
 -                    194                                   C                  -
 -                    195                                   C                  -
 -                    196                                   C                  -
 -                    197                                   C                  -
 -                    198                                   C                  -
 -                    199                                   C                  -
 -                    200                                   C                  -
 -                    201                                   C                  -
 -                    202                                   C                  -
 -                    203                                   C                  -
 -                    204                                   C                  -
 -                    205                                   C                  -
 -                    206                                   C                  -
 -                    207                                   C                  -
 -                    208                                   C                  -
 -                    209                                   C                  -
 -                    210                                   C                  -
 -                    211                                   C                  -
 -                    212                                   C                  -
 -                    213                                   C                  -
 -                    214                                   C                  -
 -                    215                                   C                  -
 -                    216                                   C                  -
 -                    217                                   C                  -
 -                    218                                   C                  -
 -                    219                                   C                  -
 -                    220                                   C                  -
 -                    221                                   C                  -
 -                    222                                   C                  -
 -                    223                                   C                  -
 -                    224                                   C                  -
 -------------------------------------------------------------------------------

 *******************************************************************************
 *******************************************************************************
 **                                                                           **
 **     #####                         ##              ##                      **
 **    ##   ##            ##          ##              ##                      **
 **   ##     ##                       ##            ######                    **
 **   ##     ##  ##   ##  ##   #####  ##  ##   ####   ##    #####    #####    **
 **   ##     ##  ##   ##  ##  ##      ## ##   ##      ##   ##   ##  ##   ##   **
 **   ##  ## ##  ##   ##  ##  ##      ####     ###    ##   ######   ######    **
 **    ##  ###   ##   ##  ##  ##      ## ##      ##   ##   ##       ##        **
 **     #######   #####   ##   #####  ##  ##  ####    ##    #####   ##        **
 **           ##                                                    ##        **
 **                                                                           **
 **                                                ... make the atoms dance   **
 **                                                                           **
 **            Copyright (C) by CP2K developers group (2000-2022)             **
 **                      J. Chem. Phys. 152, 194103 (2020)                    **
 **                                                                           **
 *******************************************************************************


 TOTAL NUMBERS AND MAXIMUM NUMBERS

  Total number of            - Atomic kinds:                                   1
                             - Atoms:                                        224
                             - Shell sets:                                   224
                             - Shells:                                      1120
                             - Primitive Cartesian functions:               1120
                             - Cartesian basis functions:                   3136
                             - Spherical basis functions:                   2912

  Maximum angular momentum of- Orbital basis functions:                        2
                             - Local part of the GTH pseudopotential:          2
                             - Non-local part of the GTH pseudopotential:      0


 SCF PARAMETERS         Density guess:                                    ATOMIC
                        --------------------------------------------------------
                        max_scf:                                             100
                        max_scf_history:                                       0
                        max_diis:                                              4
                        --------------------------------------------------------
                        eps_scf:                                        3.00E-07
                        eps_scf_history:                                0.00E+00
                        eps_diis:                                       1.00E-01
                        eps_eigval:                                     1.00E-05
                        --------------------------------------------------------
                        level_shift [a.u.]:                             0.000000
                        added MOs                                       100    0
                        --------------------------------------------------------
                        Mixing method:                            BROYDEN_MIXING
                                                charge density mixing in g-space
                        --------------------------------------------------------
                        Smear method:                                FERMI_DIRAC
                        Electronic temperature [K]:                        300.0
                        Electronic temperature [a.u.]:                  9.50E-04
                        Accuracy threshold:                             1.00E-10
                        --------------------------------------------------------
                        Outer loop SCF in use 
                        No variables optimised in outer loop
                        eps_scf                                         1.00E-06
                        max_scf                                               30
                        DIIS optimization
                        DIIS buffer length                                     3
                        step_size                                       5.00E-01

 Number of electrons:                                                        896
 Number of occupied orbitals:                                                448
 Number of molecular orbitals:                                               548

 Number of orbital functions:                                               2912
 Number of independent orbital functions:                                   2912

 Extrapolation method: initial_guess


 SCF WAVEFUNCTION OPTIMIZATION

  Step     Update method      Time    Convergence         Total energy    Change
  ------------------------------------------------------------------------------
     1 NoMix/Diag. 0.10E+00    5.8     0.92855114     -1265.9121593170 -1.27E+03
     2 Broy./Diag. 0.10E+00    8.2     0.26359742     -1214.9946253192  5.09E+01
     3 Broy./Diag. 0.10E+00    8.3     0.05096028     -1222.9896793010 -8.00E+00
     4 Broy./Diag. 0.10E+00    8.4     0.14876035     -1255.9815089556 -3.30E+01
     5 Broy./Diag. 0.10E+00    8.5     0.12768495     -1269.1463072012 -1.32E+01
     6 Broy./Diag. 0.10E+00    8.6     0.08359928     -1270.0244906654 -8.78E-01
     7 Broy./Diag. 0.10E+00    8.7     0.03847276     -1270.7394853252 -7.15E-01
     8 Broy./Diag. 0.10E+00    8.8     0.01198564     -1271.6819603260 -9.42E-01
     9 Broy./Diag. 0.10E+00    9.0     0.00957597     -1272.1601729733 -4.78E-01
    10 Broy./Diag. 0.10E+00    9.2     0.01314543     -1272.5780135346 -4.18E-01
    11 Broy./Diag. 0.10E+00    9.2     0.00493302     -1272.7193181844 -1.41E-01
    12 Broy./Diag. 0.10E+00    9.2     0.00268577     -1273.0271956956 -3.08E-01
    13 Broy./Diag. 0.10E+00    9.1     0.00263463     -1273.2837986134 -2.57E-01
    14 Broy./Diag. 0.10E+00    9.2     0.00419732     -1273.4127999922 -1.29E-01
    15 Broy./Diag. 0.10E+00    9.2     0.00080185     -1273.4914809819 -7.87E-02
    16 Broy./Diag. 0.10E+00    9.2     0.00112930     -1273.4707109507  2.08E-02
    17 Broy./Diag. 0.10E+00    9.2     0.00233761     -1273.4555839786  1.51E-02
    18 Broy./Diag. 0.10E+00    9.2     0.00194279     -1273.5099943536 -5.44E-02
    19 Broy./Diag. 0.10E+00    9.2     0.00209133     -1273.5338882392 -2.39E-02
    20 Broy./Diag. 0.10E+00    9.2     0.00134366     -1273.5544980328 -2.06E-02
    21 Broy./Diag. 0.10E+00    9.2     0.00047129     -1273.5869961959 -3.25E-02
    22 Broy./Diag. 0.10E+00    9.2     0.00019771     -1273.6195103200 -3.25E-02
    23 Broy./Diag. 0.10E+00    9.2     0.00014060     -1273.6458137838 -2.63E-02
    24 Broy./Diag. 0.10E+00    9.2     0.00033124     -1273.6471084954 -1.29E-03
    25 Broy./Diag. 0.10E+00    9.2     0.00019573     -1273.6427937975  4.31E-03
    26 Broy./Diag. 0.10E+00   10.8     0.00020272     -1273.6368986807  5.90E-03
    27 Broy./Diag. 0.10E+00   15.9     0.00028741     -1273.6284236983  8.47E-03
    28 Broy./Diag. 0.10E+00   16.1     0.00033089     -1273.6272934629  1.13E-03
    29 Broy./Diag. 0.10E+00   16.9     0.00055854     -1273.6366635973 -9.37E-03
    30 Broy./Diag. 0.10E+00   16.6     0.00048188     -1273.6435977444 -6.93E-03
    31 Broy./Diag. 0.10E+00   16.6     0.00015325     -1273.6463051775 -2.71E-03
    32 Broy./Diag. 0.10E+00   16.5     0.00017303     -1273.6449244047  1.38E-03
    33 Broy./Diag. 0.10E+00   16.7     0.00014330     -1273.6435634387  1.36E-03
    34 Broy./Diag. 0.10E+00   16.8     0.00009674     -1273.6415868684  1.98E-03
    35 Broy./Diag. 0.10E+00   17.2     0.00014743     -1273.6439586183 -2.37E-03
    36 Broy./Diag. 0.10E+00   17.4     0.00020370     -1273.6459831582 -2.02E-03
    37 Broy./Diag. 0.10E+00   17.3     0.00009722     -1273.6488357099 -2.85E-03
    38 Broy./Diag. 0.10E+00   17.5     0.00002377     -1273.6511731862 -2.34E-03
    39 Broy./Diag. 0.10E+00   17.5     0.00009044     -1273.6525682280 -1.40E-03
    40 Broy./Diag. 0.10E+00   17.5     0.00010735     -1273.6544350585 -1.87E-03
    41 Broy./Diag. 0.10E+00   17.4     0.00004590     -1273.6554015567 -9.66E-04
    42 Broy./Diag. 0.10E+00   17.4     0.00005335     -1273.6569120628 -1.51E-03
    43 Broy./Diag. 0.10E+00   17.4     0.00004781     -1273.6583973213 -1.49E-03
    44 Broy./Diag. 0.10E+00   17.4     0.00001419     -1273.6588563239 -4.59E-04
    45 Broy./Diag. 0.10E+00   17.5     0.00001349     -1273.6587209794  1.35E-04
    46 Broy./Diag. 0.10E+00   17.5     0.00004057     -1273.6581500713  5.71E-04
    47 Broy./Diag. 0.10E+00   17.5     0.00003752     -1273.6573857175  7.64E-04
    48 Broy./Diag. 0.10E+00   17.3     0.00001692     -1273.6568065292  5.79E-04
    49 Broy./Diag. 0.10E+00   17.5     0.00001059     -1273.6565780075  2.29E-04
    50 Broy./Diag. 0.10E+00   17.5     0.00001318     -1273.6564513041  1.27E-04
    51 Broy./Diag. 0.10E+00   17.5     0.00001933     -1273.6563118595  1.39E-04
    52 Broy./Diag. 0.10E+00   17.5     0.00001586     -1273.6563322507 -2.04E-05
    53 Broy./Diag. 0.10E+00   17.6     0.00001590     -1273.6564232868 -9.10E-05
    54 Broy./Diag. 0.10E+00   17.5     0.00001031     -1273.6567227652 -2.99E-04
    55 Broy./Diag. 0.10E+00   17.5     0.00000458     -1273.6570550338 -3.32E-04
    56 Broy./Diag. 0.10E+00   17.6     0.00000833     -1273.6573083452 -2.53E-04
    57 Broy./Diag. 0.10E+00   17.5     0.00000873     -1273.6575237164 -2.15E-04
    58 Broy./Diag. 0.10E+00   17.5     0.00000484     -1273.6576601005 -1.36E-04
    59 Broy./Diag. 0.10E+00   17.4     0.00000201     -1273.6576960670 -3.60E-05
    60 Broy./Diag. 0.10E+00   17.5     0.00000407     -1273.6576918435  4.22E-06
    61 Broy./Diag. 0.10E+00   17.5     0.00000453     -1273.6576470758  4.48E-05
    62 Broy./Diag. 0.10E+00   17.5     0.00000300     -1273.6576183995  2.87E-05
    63 Broy./Diag. 0.10E+00   17.4     0.00000238     -1273.6575978393  2.06E-05
    64 Broy./Diag. 0.10E+00   17.5     0.00000200     -1273.6575509466  4.69E-05
    65 Broy./Diag. 0.10E+00   17.4     0.00000102     -1273.6575146247  3.63E-05
    66 Broy./Diag. 0.10E+00   17.5     0.00000210     -1273.6574806647  3.40E-05
    67 Broy./Diag. 0.10E+00   17.2     0.00000259     -1273.6574566839  2.40E-05
    68 Broy./Diag. 0.10E+00   17.2     0.00000212     -1273.6574611365 -4.45E-06
    69 Broy./Diag. 0.10E+00   17.3     0.00000155     -1273.6575033562 -4.22E-05
    70 Broy./Diag. 0.10E+00   17.4     0.00000156     -1273.6575427982 -3.94E-05
    71 Broy./Diag. 0.10E+00   17.3     0.00000127     -1273.6575676944 -2.49E-05
    72 Broy./Diag. 0.10E+00   17.3     0.00000073     -1273.6575829749 -1.53E-05
    73 Broy./Diag. 0.10E+00   17.4     0.00000085     -1273.6575853230 -2.35E-06
    74 Broy./Diag. 0.10E+00   17.4     0.00000063     -1273.6575947149 -9.39E-06
    75 Broy./Diag. 0.10E+00   17.4     0.00000025     -1273.6575994268 -4.71E-06

  *** SCF run converged in    75 steps ***


  Electronic density on regular grids:       -896.0000000000        0.0000000000
  Core density on regular grids:              895.9999999992       -0.0000000008
  Total charge density on r-space grids:       -0.0000000007
  Total charge density g-space grids:          -0.0000000007

  Overlap energy of the core charge distribution:               0.00005632564276
  Self energy of the core charge distribution:              -2987.04177559540722
  Core Hamiltonian energy:                                    937.74498371287325
  Hartree energy:                                            1167.03334637293665
  Exchange-correlation energy:                               -391.12778182923921
  Dispersion energy:                                           -0.25986067328793
  Electronic entropic energy:                                  -0.00656773959893
  Fermi energy:                                                -0.15103835500878

  Total energy:                                             -1273.65759942676164

  outer SCF iter =    1 RMS gradient =   0.25E-06 energy =      -1273.6575994268
  outer SCF loop converged in   1 iterations or   75 steps


 *** WARNING in qs_loc_utils.F:1500 :: User requested the calculation of ***
 *** the localized wavefunction but the section LOCALIZE was not         ***
 *** specified. Localization will not be performed!                      ***


 -------------------------------------------------------------------------------
 -                                                                             -
 -  BSSE CALCULATION         FRAGMENT CONF: 01        FRAGMENT SUBCONF: 01     -
 -                           CHARGE =     0           MULTIPLICITY =     0     -
 -                                                                             -
 -                 ATOM INDEX                              ATOM NAME           -
 -                 ----------                              ---------           -
 -                    225                                   Na                 -
 -------------------------------------------------------------------------------

 *******************************************************************************
 *******************************************************************************
 **                                                                           **
 **     #####                         ##              ##                      **
 **    ##   ##            ##          ##              ##                      **
 **   ##     ##                       ##            ######                    **
 **   ##     ##  ##   ##  ##   #####  ##  ##   ####   ##    #####    #####    **
 **   ##     ##  ##   ##  ##  ##      ## ##   ##      ##   ##   ##  ##   ##   **
 **   ##  ## ##  ##   ##  ##  ##      ####     ###    ##   ######   ######    **
 **    ##  ###   ##   ##  ##  ##      ## ##      ##   ##   ##       ##        **
 **     #######   #####   ##   #####  ##  ##  ####    ##    #####   ##        **
 **           ##                                                    ##        **
 **                                                                           **
 **                                                ... make the atoms dance   **
 **                                                                           **
 **            Copyright (C) by CP2K developers group (2000-2022)             **
 **                      J. Chem. Phys. 152, 194103 (2020)                    **
 **                                                                           **
 *******************************************************************************

 *** WARNING in qs_environment.F:1486 :: More added MOs requested than     ***
 *** available. The full set of unoccupied MOs will be used. Use           ***
 *** 'ADDED_MOS -1' to always use all available MOs and to get rid of this ***
 *** warning.                                                              ***



 TOTAL NUMBERS AND MAXIMUM NUMBERS

  Total number of            - Atomic kinds:                                   1
                             - Atoms:                                          1
                             - Shell sets:                                     1
                             - Shells:                                         5
                             - Primitive Cartesian functions:                  7
                             - Cartesian basis functions:                      9
                             - Spherical basis functions:                      9

  Maximum angular momentum of- Orbital basis functions:                        1
                             - Local part of the GTH pseudopotential:          2
                             - Non-local part of the GTH pseudopotential:      1


 SCF PARAMETERS         Density guess:                                    ATOMIC
                        --------------------------------------------------------
                        max_scf:                                             100
                        max_scf_history:                                       0
                        max_diis:                                              4
                        --------------------------------------------------------
                        eps_scf:                                        3.00E-07
                        eps_scf_history:                                0.00E+00
                        eps_diis:                                       1.00E-01
                        eps_eigval:                                     1.00E-05
                        --------------------------------------------------------
                        level_shift [a.u.]:                             0.000000
                        added MOs                                         4    0
                        --------------------------------------------------------
                        Mixing method:                            BROYDEN_MIXING
                                                charge density mixing in g-space
                        --------------------------------------------------------
                        Smear method:                                FERMI_DIRAC
                        Electronic temperature [K]:                        300.0
                        Electronic temperature [a.u.]:                  9.50E-04
                        Accuracy threshold:                             1.00E-10
                        --------------------------------------------------------
                        Outer loop SCF in use 
                        No variables optimised in outer loop
                        eps_scf                                         1.00E-06
                        max_scf                                               30
                        DIIS optimization
                        DIIS buffer length                                     3
                        step_size                                       5.00E-01

 Number of electrons:                                                          9
 Number of occupied orbitals:                                                  5
 Number of molecular orbitals:                                                 9

 Number of orbital functions:                                                  9
 Number of independent orbital functions:                                      9

 Extrapolation method: initial_guess


 SCF WAVEFUNCTION OPTIMIZATION

  Step     Update method      Time    Convergence         Total energy    Change
  ------------------------------------------------------------------------------
     1 NoMix/Diag. 0.10E+00    1.7     0.02077836       -47.1630086299 -4.72E+01
     2 Broy./Diag. 0.10E+00    3.6     0.00009660       -47.1202040864  4.28E-02
     3 Broy./Diag. 0.10E+00    3.8     0.00099567       -47.1610238036 -4.08E-02
     4 Broy./Diag. 0.10E+00    3.9     0.00002397       -47.1686829277 -7.66E-03
     5 Broy./Diag. 0.10E+00    5.9     0.00025227       -47.1687167880 -3.39E-05
     6 Broy./Diag. 0.10E+00    5.3     0.00000810       -47.1688388590 -1.22E-04
     7 Broy./Diag. 0.10E+00    4.0     0.00014100       -47.1671553925  1.68E-03
     8 Broy./Diag. 0.10E+00    4.3     0.00001764       -47.1662072119  9.48E-04
     9 Broy./Diag. 0.10E+00    4.5     0.00018656       -47.1655542853  6.53E-04
    10 Broy./Diag. 0.10E+00    6.6     0.00000972       -47.1651687291  3.86E-04
    11 Broy./Diag. 0.10E+00    6.1     0.00009322       -47.1649642182  2.05E-04
    12 Broy./Diag. 0.10E+00    4.7     0.00000301       -47.1649019420  6.23E-05
    13 Broy./Diag. 0.10E+00    4.6     0.00000816       -47.1649983375 -9.64E-05
    14 Broy./Diag. 0.10E+00    4.8     0.00000082       -47.1650153936 -1.71E-05
    15 Broy./Diag. 0.10E+00    7.3     0.00001232       -47.1648538353  1.62E-04
    16 Broy./Diag. 0.10E+00    5.3     0.00000255       -47.1648248810  2.90E-05
    17 Broy./Diag. 0.10E+00    4.7     0.00000271       -47.1648621284 -3.72E-05
    18 Broy./Diag. 0.10E+00    4.6     0.00000204       -47.1649037905 -4.17E-05
    19 Broy./Diag. 0.10E+00    4.7     0.00000145       -47.1649219598 -1.82E-05
    20 Broy./Diag. 0.10E+00    8.2     0.00000262       -47.1649178243  4.14E-06
    21 Broy./Diag. 0.10E+00    4.7     0.00000267       -47.1648968497  2.10E-05
    22 Broy./Diag. 0.10E+00    4.7     0.00000453       -47.1648659586  3.09E-05
    23 Broy./Diag. 0.10E+00    4.8     0.00000313       -47.1648454861  2.05E-05
    24 Broy./Diag. 0.10E+00    5.2     0.00000121       -47.1648433357  2.15E-06
    25 Broy./Diag. 0.10E+00    7.4     0.00000028       -47.1648512498 -7.91E-06

  *** SCF run converged in    25 steps ***


  Electronic density on regular grids:         -9.0003112747       -0.0003112747
  Core density on regular grids:                9.0000000000       -0.0000000000
  Total charge density on r-space grids:       -0.0003112747
  Total charge density g-space grids:          -0.0003112747

  Overlap energy of the core charge distribution:               0.00000000000000
  Self energy of the core charge distribution:                -96.60649019442629
  Core Hamiltonian energy:                                     29.76183579341125
  Hartree energy:                                              26.72549460692192
  Exchange-correlation energy:                                 -7.04437377909054
  Dispersion energy:                                           -0.00000063510881
  Electronic entropic energy:                                  -0.00131704147593
  Fermi energy:                                                -0.09177114329128

  Total energy:                                               -47.16485124976839

  outer SCF iter =    1 RMS gradient =   0.28E-06 energy =        -47.1648512498
  outer SCF loop converged in   1 iterations or   25 steps


 *** WARNING in qs_loc_utils.F:1500 :: User requested the calculation of ***
 *** the localized wavefunction but the section LOCALIZE was not         ***
 *** specified. Localization will not be performed!                      ***


 -------------------------------------------------------------------------------
 -                                                                             -
 -  BSSE CALCULATION         FRAGMENT CONF: 11        FRAGMENT SUBCONF: 10     -
 -                           CHARGE =     0           MULTIPLICITY =     0     -
 -                                                                             -
 -                 ATOM INDEX                              ATOM NAME           -
 -                 ----------                              ---------           -
 -                      1                                   C                  -
 -                      2                                   C                  -
 -                      3                                   C                  -
 -                      4                                   C                  -
 -                      5                                   C                  -
 -                      6                                   C                  -
 -                      7                                   C                  -
 -                      8                                   C                  -
 -                      9                                   C                  -
 -                     10                                   C                  -
 -                     11                                   C                  -
 -                     12                                   C                  -
 -                     13                                   C                  -
 -                     14                                   C                  -
 -                     15                                   C                  -
 -                     16                                   C                  -
 -                     17                                   C                  -
 -                     18                                   C                  -
 -                     19                                   C                  -
 -                     20                                   C                  -
 -                     21                                   C                  -
 -                     22                                   C                  -
 -                     23                                   C                  -
 -                     24                                   C                  -
 -                     25                                   C                  -
 -                     26                                   C                  -
 -                     27                                   C                  -
 -                     28                                   C                  -
 -                     29                                   C                  -
 -                     30                                   C                  -
 -                     31                                   C                  -
 -                     32                                   C                  -
 -                     33                                   C                  -
 -                     34                                   C                  -
 -                     35                                   C                  -
 -                     36                                   C                  -
 -                     37                                   C                  -
 -                     38                                   C                  -
 -                     39                                   C                  -
 -                     40                                   C                  -
 -                     41                                   C                  -
 -                     42                                   C                  -
 -                     43                                   C                  -
 -                     44                                   C                  -
 -                     45                                   C                  -
 -                     46                                   C                  -
 -                     47                                   C                  -
 -                     48                                   C                  -
 -                     49                                   C                  -
 -                     50                                   C                  -
 -                     51                                   C                  -
 -                     52                                   C                  -
 -                     53                                   C                  -
 -                     54                                   C                  -
 -                     55                                   C                  -
 -                     56                                   C                  -
 -                     57                                   C                  -
 -                     58                                   C                  -
 -                     59                                   C                  -
 -                     60                                   C                  -
 -                     61                                   C                  -
 -                     62                                   C                  -
 -                     63                                   C                  -
 -                     64                                   C                  -
 -                     65                                   C                  -
 -                     66                                   C                  -
 -                     67                                   C                  -
 -                     68                                   C                  -
 -                     69                                   C                  -
 -                     70                                   C                  -
 -                     71                                   C                  -
 -                     72                                   C                  -
 -                     73                                   C                  -
 -                     74                                   C                  -
 -                     75                                   C                  -
 -                     76                                   C                  -
 -                     77                                   C                  -
 -                     78                                   C                  -
 -                     79                                   C                  -
 -                     80                                   C                  -
 -                     81                                   C                  -
 -                     82                                   C                  -
 -                     83                                   C                  -
 -                     84                                   C                  -
 -                     85                                   C                  -
 -                     86                                   C                  -
 -                     87                                   C                  -
 -                     88                                   C                  -
 -                     89                                   C                  -
 -                     90                                   C                  -
 -                     91                                   C                  -
 -                     92                                   C                  -
 -                     93                                   C                  -
 -                     94                                   C                  -
 -                     95                                   C                  -
 -                     96                                   C                  -
 -                     97                                   C                  -
 -                     98                                   C                  -
 -                     99                                   C                  -
 -                    100                                   C                  -
 -                    101                                   C                  -
 -                    102                                   C                  -
 -                    103                                   C                  -
 -                    104                                   C                  -
 -                    105                                   C                  -
 -                    106                                   C                  -
 -                    107                                   C                  -
 -                    108                                   C                  -
 -                    109                                   C                  -
 -                    110                                   C                  -
 -                    111                                   C                  -
 -                    112                                   C                  -
 -                    113                                   C                  -
 -                    114                                   C                  -
 -                    115                                   C                  -
 -                    116                                   C                  -
 -                    117                                   C                  -
 -                    118                                   C                  -
 -                    119                                   C                  -
 -                    120                                   C                  -
 -                    121                                   C                  -
 -                    122                                   C                  -
 -                    123                                   C                  -
 -                    124                                   C                  -
 -                    125                                   C                  -
 -                    126                                   C                  -
 -                    127                                   C                  -
 -                    128                                   C                  -
 -                    129                                   C                  -
 -                    130                                   C                  -
 -                    131                                   C                  -
 -                    132                                   C                  -
 -                    133                                   C                  -
 -                    134                                   C                  -
 -                    135                                   C                  -
 -                    136                                   C                  -
 -                    137                                   C                  -
 -                    138                                   C                  -
 -                    139                                   C                  -
 -                    140                                   C                  -
 -                    141                                   C                  -
 -                    142                                   C                  -
 -                    143                                   C                  -
 -                    144                                   C                  -
 -                    145                                   C                  -
 -                    146                                   C                  -
 -                    147                                   C                  -
 -                    148                                   C                  -
 -                    149                                   C                  -
 -                    150                                   C                  -
 -                    151                                   C                  -
 -                    152                                   C                  -
 -                    153                                   C                  -
 -                    154                                   C                  -
 -                    155                                   C                  -
 -                    156                                   C                  -
 -                    157                                   C                  -
 -                    158                                   C                  -
 -                    159                                   C                  -
 -                    160                                   C                  -
 -                    161                                   C                  -
 -                    162                                   C                  -
 -                    163                                   C                  -
 -                    164                                   C                  -
 -                    165                                   C                  -
 -                    166                                   C                  -
 -                    167                                   C                  -
 -                    168                                   C                  -
 -                    169                                   C                  -
 -                    170                                   C                  -
 -                    171                                   C                  -
 -                    172                                   C                  -
 -                    173                                   C                  -
 -                    174                                   C                  -
 -                    175                                   C                  -
 -                    176                                   C                  -
 -                    177                                   C                  -
 -                    178                                   C                  -
 -                    179                                   C                  -
 -                    180                                   C                  -
 -                    181                                   C                  -
 -                    182                                   C                  -
 -                    183                                   C                  -
 -                    184                                   C                  -
 -                    185                                   C                  -
 -                    186                                   C                  -
 -                    187                                   C                  -
 -                    188                                   C                  -
 -                    189                                   C                  -
 -                    190                                   C                  -
 -                    191                                   C                  -
 -                    192                                   C                  -
 -                    193                                   C                  -
 -                    194                                   C                  -
 -                    195                                   C                  -
 -                    196                                   C                  -
 -                    197                                   C                  -
 -                    198                                   C                  -
 -                    199                                   C                  -
 -                    200                                   C                  -
 -                    201                                   C                  -
 -                    202                                   C                  -
 -                    203                                   C                  -
 -                    204                                   C                  -
 -                    205                                   C                  -
 -                    206                                   C                  -
 -                    207                                   C                  -
 -                    208                                   C                  -
 -                    209                                   C                  -
 -                    210                                   C                  -
 -                    211                                   C                  -
 -                    212                                   C                  -
 -                    213                                   C                  -
 -                    214                                   C                  -
 -                    215                                   C                  -
 -                    216                                   C                  -
 -                    217                                   C                  -
 -                    218                                   C                  -
 -                    219                                   C                  -
 -                    220                                   C                  -
 -                    221                                   C                  -
 -                    222                                   C                  -
 -                    223                                   C                  -
 -                    224                                   C                  -
 -                    225                                   Na_ghost           -
 -------------------------------------------------------------------------------

 *******************************************************************************
 *******************************************************************************
 **                                                                           **
 **     #####                         ##              ##                      **
 **    ##   ##            ##          ##              ##                      **
 **   ##     ##                       ##            ######                    **
 **   ##     ##  ##   ##  ##   #####  ##  ##   ####   ##    #####    #####    **
 **   ##     ##  ##   ##  ##  ##      ## ##   ##      ##   ##   ##  ##   ##   **
 **   ##  ## ##  ##   ##  ##  ##      ####     ###    ##   ######   ######    **
 **    ##  ###   ##   ##  ##  ##      ## ##      ##   ##   ##       ##        **
 **     #######   #####   ##   #####  ##  ##  ####    ##    #####   ##        **
 **           ##                                                    ##        **
 **                                                                           **
 **                                                ... make the atoms dance   **
 **                                                                           **
 **            Copyright (C) by CP2K developers group (2000-2022)             **
 **                      J. Chem. Phys. 152, 194103 (2020)                    **
 **                                                                           **
 *******************************************************************************


 TOTAL NUMBERS AND MAXIMUM NUMBERS

  Total number of            - Atomic kinds:                                   2
                             - Atoms:                                        225
                             - Shell sets:                                   225
                             - Shells:                                      1125
                             - Primitive Cartesian functions:               1127
                             - Cartesian basis functions:                   3145
                             - Spherical basis functions:                   2921

  Maximum angular momentum of- Orbital basis functions:                        2
                             - Local part of the GTH pseudopotential:          2
                             - Non-local part of the GTH pseudopotential:      0


 SCF PARAMETERS         Density guess:                                    ATOMIC
                        --------------------------------------------------------
                        max_scf:                                             100
                        max_scf_history:                                       0
                        max_diis:                                              4
                        --------------------------------------------------------
                        eps_scf:                                        3.00E-07
                        eps_scf_history:                                0.00E+00
                        eps_diis:                                       1.00E-01
                        eps_eigval:                                     1.00E-05
                        --------------------------------------------------------
                        level_shift [a.u.]:                             0.000000
                        added MOs                                       100    0
                        --------------------------------------------------------
                        Mixing method:                            BROYDEN_MIXING
                                                charge density mixing in g-space
                        --------------------------------------------------------
                        Smear method:                                FERMI_DIRAC
                        Electronic temperature [K]:                        300.0
                        Electronic temperature [a.u.]:                  9.50E-04
                        Accuracy threshold:                             1.00E-10
                        --------------------------------------------------------
                        Outer loop SCF in use 
                        No variables optimised in outer loop
                        eps_scf                                         1.00E-06
                        max_scf                                               30
                        DIIS optimization
                        DIIS buffer length                                     3
                        step_size                                       5.00E-01

 Number of electrons:                                                        896
 Number of occupied orbitals:                                                448
 Number of molecular orbitals:                                               548

 Number of orbital functions:                                               2921
 Number of independent orbital functions:                                   2921

 Extrapolation method: initial_guess


 SCF WAVEFUNCTION OPTIMIZATION

  Step     Update method      Time    Convergence         Total energy    Change
  ------------------------------------------------------------------------------
     1 NoMix/Diag. 0.10E+00   11.3     0.92855435     -1265.9121593170 -1.27E+03
     2 Broy./Diag. 0.10E+00   14.5     0.26384809     -1214.9915192991  5.09E+01
     3 Broy./Diag. 0.10E+00   15.0     0.05333263     -1222.9769053440 -7.99E+00
     4 Broy./Diag. 0.10E+00   15.2     0.14714197     -1255.9665569289 -3.30E+01
     5 Broy./Diag. 0.10E+00   15.3     0.12562797     -1269.1486483563 -1.32E+01
     6 Broy./Diag. 0.10E+00   15.6     0.08432341     -1270.0290631660 -8.80E-01
     7 Broy./Diag. 0.10E+00   15.6     0.04061763     -1270.7420091428 -7.13E-01
     8 Broy./Diag. 0.10E+00   15.8     0.01065369     -1271.6828160928 -9.41E-01
     9 Broy./Diag. 0.10E+00   15.9     0.01291625     -1272.1579694626 -4.75E-01
    10 Broy./Diag. 0.10E+00   16.1     0.01291312     -1272.5766326108 -4.19E-01
    11 Broy./Diag. 0.10E+00   16.1     0.00557093     -1272.7151760465 -1.39E-01
    12 Broy./Diag. 0.10E+00   16.1     0.00295471     -1272.9911438735 -2.76E-01
    13 Broy./Diag. 0.10E+00   16.0     0.00388801     -1273.2626794642 -2.72E-01
    14 Broy./Diag. 0.10E+00   16.0     0.00399103     -1273.3450592147 -8.24E-02
    15 Broy./Diag. 0.10E+00   16.1     0.00651949     -1273.3721964489 -2.71E-02
    16 Broy./Diag. 0.10E+00   16.1     0.00368471     -1273.4198608422 -4.77E-02
    17 Broy./Diag. 0.10E+00   16.1     0.00116605     -1273.5121951250 -9.23E-02
    18 Broy./Diag. 0.10E+00   16.0     0.00039728     -1273.5708479991 -5.87E-02
    19 Broy./Diag. 0.10E+00   16.0     0.00082510     -1273.5856429232 -1.48E-02
    20 Broy./Diag. 0.10E+00   16.0     0.00046303     -1273.5901885396 -4.55E-03
    21 Broy./Diag. 0.10E+00   16.0     0.00114078     -1273.5739871952  1.62E-02
    22 Broy./Diag. 0.10E+00   22.8     0.00090737     -1273.5742635078 -2.76E-04
    23 Broy./Diag. 0.10E+00   25.3     0.00071639     -1273.5885442617 -1.43E-02
    24 Broy./Diag. 0.10E+00   26.0     0.00089074     -1273.6033721300 -1.48E-02
    25 Broy./Diag. 0.10E+00   26.2     0.00124369     -1273.6133078160 -9.94E-03
    26 Broy./Diag. 0.10E+00   24.6     0.00086517     -1273.6158099842 -2.50E-03
    27 Broy./Diag. 0.10E+00   15.7     0.00055083     -1273.6158186193 -8.64E-06
    28 Broy./Diag. 0.10E+00   15.7     0.00061589     -1273.6167956384 -9.77E-04
    29 Broy./Diag. 0.10E+00   15.9     0.00028033     -1273.6244531469 -7.66E-03
    30 Broy./Diag. 0.10E+00   16.0     0.00041216     -1273.6335731846 -9.12E-03
    31 Broy./Diag. 0.10E+00   16.2     0.00021330     -1273.6459613737 -1.24E-02
    32 Broy./Diag. 0.10E+00   16.2     0.00025708     -1273.6540862071 -8.12E-03
    33 Broy./Diag. 0.10E+00   16.5     0.00028772     -1273.6575719802 -3.49E-03
    34 Broy./Diag. 0.10E+00   16.7     0.00020870     -1273.6590921342 -1.52E-03
    35 Broy./Diag. 0.10E+00   16.9     0.00015572     -1273.6594799224 -3.88E-04
    36 Broy./Diag. 0.10E+00   17.4     0.00012674     -1273.6588331571  6.47E-04
    37 Broy./Diag. 0.10E+00   17.6     0.00018262     -1273.6572694879  1.56E-03
    38 Broy./Diag. 0.10E+00   17.7     0.00021215     -1273.6558631301  1.41E-03
    39 Broy./Diag. 0.10E+00   17.5     0.00007353     -1273.6556211066  2.42E-04
    40 Broy./Diag. 0.10E+00   17.4     0.00008674     -1273.6560717656 -4.51E-04
    41 Broy./Diag. 0.10E+00   17.4     0.00014340     -1273.6573240515 -1.25E-03
    42 Broy./Diag. 0.10E+00   17.5     0.00013110     -1273.6589948370 -1.67E-03
    43 Broy./Diag. 0.10E+00   17.5     0.00006457     -1273.6601632200 -1.17E-03
    44 Broy./Diag. 0.10E+00   17.4     0.00005627     -1273.6601392682  2.40E-05
    45 Broy./Diag. 0.10E+00   17.4     0.00004877     -1273.6596742870  4.65E-04
    46 Broy./Diag. 0.10E+00   17.4     0.00003828     -1273.6592605263  4.14E-04
    47 Broy./Diag. 0.10E+00   17.6     0.00004220     -1273.6588625728  3.98E-04
    48 Broy./Diag. 0.10E+00   17.5     0.00006083     -1273.6584831694  3.79E-04
    49 Broy./Diag. 0.10E+00   17.5     0.00005243     -1273.6582141113  2.69E-04
    50 Broy./Diag. 0.10E+00   17.5     0.00002557     -1273.6581165166  9.76E-05
    51 Broy./Diag. 0.10E+00   17.4     0.00003344     -1273.6581333387 -1.68E-05
    52 Broy./Diag. 0.10E+00   17.5     0.00003232     -1273.6581960366 -6.27E-05
[...]
    98 Broy./Diag. 0.10E+00   54.8     0.00000057     -1320.8577378224 -3.30E-06
    99 Broy./Diag. 0.10E+00   52.1     0.00000047     -1320.8577390491 -1.23E-06
   100 Broy./Diag. 0.10E+00   52.9     0.00000019     -1320.8577415292 -2.48E-06

  *** SCF run converged in   100 steps ***


  Electronic density on regular grids:       -905.0003139478       -0.0003139478
  Core density on regular grids:              904.9999999992       -0.0000000008
  Total charge density on r-space grids:       -0.0003139486
  Total charge density g-space grids:          -0.0003139486

  Overlap energy of the core charge distribution:               0.00005632564276
  Self energy of the core charge distribution:              -3083.64826578983366
  Core Hamiltonian energy:                                    968.08274619884060
  Hartree energy:                                            1193.44142338496044
  Exchange-correlation energy:                               -398.46302658415283
  Dispersion energy:                                           -0.26311053944751
  Electronic entropic energy:                                  -0.00756452806558
  Fermi energy:                                                -0.14463946033331

  Total energy:                                             -1320.85774152915542

  outer SCF iter =    1 RMS gradient =   0.19E-06 energy =      -1320.8577415292
  outer SCF loop converged in   1 iterations or  100 steps


 *** WARNING in qs_loc_utils.F:1500 :: User requested the calculation of ***
 *** the localized wavefunction but the section LOCALIZE was not         ***
 *** specified. Localization will not be performed!                      ***


 -------------------------------------------------------------------------------
 -                                                                             -
 -                                 BSSE RESULTS                                -
 -                                                                             -
 -                 CP-corrected Total energy:    -1320.855543                  -
 -                                                                             -
 -                       1-body contribution:    -1273.657599                  -
 -                       1-body contribution:      -47.164851                  -
 -                                                                             -
 -                       2-body contribution:       -0.033093                  -
 -                 BSSE-free interaction energy:       -0.033093               -
 -------------------------------------------------------------------------------

 -------------------------------------------------------------------------------
 -                                                                             -
 -                                DBCSR STATISTICS                             -
 -                                                                             -
 -------------------------------------------------------------------------------
 COUNTER                                    TOTAL       BLAS       SMM       ACC
 flops     9 x     9 x     9               106434     100.0%      0.0%      0.0%
 flops     9 x     9 x    32               746496     100.0%      0.0%      0.0%
 flops     9 x     9 x   132              1817640     100.0%      0.0%      0.0%
 flops     9 x     9 x   137              2219400     100.0%      0.0%      0.0%
 flops     9 x     9 x   160              4795200     100.0%      0.0%      0.0%
 flops     9 x    13 x     9              7177248     100.0%      0.0%      0.0%
 flops    13 x     9 x     9              7581600     100.0%      0.0%      0.0%
 flops     9 x     9 x   128              7672320     100.0%      0.0%      0.0%
 flops     9 x    13 x    32             76557312     100.0%      0.0%      0.0%
 flops    13 x     9 x    32             80870400     100.0%      0.0%      0.0%
 flops     9 x    13 x   132            186409080     100.0%      0.0%      0.0%
 flops    13 x     9 x   132            196911000     100.0%      0.0%      0.0%
 flops     9 x    13 x   137            227611800     100.0%      0.0%      0.0%
 flops    13 x     9 x   137            240435000     100.0%      0.0%      0.0%
 flops     9 x    13 x   160            491774400     100.0%      0.0%      0.0%
 flops    13 x     9 x   160            519480000     100.0%      0.0%      0.0%
 flops     9 x    13 x   128            786839040     100.0%      0.0%      0.0%
 flops    13 x     9 x   128            831168000     100.0%      0.0%      0.0%
 flops    13 x    13 x     9           2108471040     100.0%      0.0%      0.0%
 flops    13 x    13 x    32          22490357760     100.0%      0.0%      0.0%
 flops    13 x    13 x   137          66865864000     100.0%      0.0%      0.0%
 flops    13 x    13 x   132         103080806400     100.0%      0.0%      0.0%
 flops    13 x    13 x   160         203037952000     100.0%      0.0%      0.0%
 flops    13 x    13 x   128         324860723200     100.0%      0.0%      0.0%
 flops inhomo. stacks                           0       0.0%      0.0%      0.0%
 flops total                       726.114347E+09     100.0%      0.0%      0.0%
 flops max/rank                     49.647991E+09     100.0%      0.0%      0.0%
 matmuls inhomo. stacks                         0       0.0%      0.0%      0.0%
 matmuls total                           17927109     100.0%      0.0%      0.0%
 number of processed stacks                 27193     100.0%      0.0%      0.0%
 average stack size                                   659.3       0.0       0.0
 marketing flops                     2.042003E+12
 -------------------------------------------------------------------------------
 # multiplications                            333
 max memory usage/rank               2.051711E+09
 # max total images/rank                        1
 # max 3D layers                                1
 # MPI messages exchanged                   31968
 MPI messages size (bytes):
  total size                        20.735922E+09
  min size                           0.000000E+00
  max size                         943.360000E+03
  average size                     648.646188E+03
 MPI breakdown and total messages size (bytes):
             size <=      128                2250                        0
       128 < size <=     8192                 150                    97200
      8192 < size <=    32768                   0                        0
     32768 < size <=   131072                1152                 60569856
    131072 < size <=  4194304               28416              20675263104
   4194304 < size <= 16777216                   0                        0
  16777216 < size                               0                        0
 -------------------------------------------------------------------------------
 -                                                                             -
 -                      DBCSR MESSAGE PASSING PERFORMANCE                      -
 -                                                                             -
 -------------------------------------------------------------------------------
 ROUTINE             CALLS      AVE VOLUME [Bytes]
 MP_Bcast               25                     12.
 MP_Allreduce         2403                      8.
 MP_Alltoall          9384                 608201.
 MP_ISend             5328                 251318.
 MP_IRecv             5328                 230709.
 -------------------------------------------------------------------------------

 -------------------------------------------------------------------------------
 -                                                                             -
 -                                DBM STATISTICS                               -
 -                                                                             -
 -------------------------------------------------------------------------------
    M  x    N  x    K                                          COUNT     PERCENT
 -------------------------------------------------------------------------------

 -------------------------------------------------------------------------------
 -                                                                             -
 -                                GRID STATISTICS                              -
 -                                                                             -
 -------------------------------------------------------------------------------
 LP    KERNEL             BACKEND                              COUNT     PERCENT
 4     collocate ortho    REF                               36868416      49.87%
 4     integrate ortho    REF                               36395744      49.23%
 3     collocate ortho    REF                                 316004       0.43%
 3     integrate ortho    REF                                 311987       0.42%
 2     collocate ortho    REF                                  12838       0.02%
 2     integrate ortho    REF                                  12642       0.02%
 0     collocate general  REF                                  10800       0.01%
 -------------------------------------------------------------------------------

 MEMORY| Estimated peak process memory [MiB]                                1957

 -------------------------------------------------------------------------------
 -                                                                             -
 -                         MESSAGE PASSING PERFORMANCE                         -
 -                                                                             -
 -------------------------------------------------------------------------------

 ROUTINE             CALLS      AVE VOLUME [Bytes]
 MP_Group               24
 MP_Bcast              819                1182150.
 MP_Allreduce         4337                   1761.
 MP_Sync               382
 MP_Alltoall          4429               63080559.
 MP_SendRecv         14136                 475467.
 MP_ISendRecv         9990                 444928.
 MP_Wait             24807
 MP_comm_split          25
 MP_ISend            10776                3185108.
 MP_IRecv            10776                3185237.
 MP_Recv               237                 730100.
 -------------------------------------------------------------------------------


 -------------------------------------------------------------------------------
 -                                                                             -
 -                           R E F E R E N C E S                               -
 -                                                                             -
 -------------------------------------------------------------------------------
 
 CP2K version 2023.1, the CP2K developers group (2023).
 CP2K is freely available from https://www.cp2k.org/ .

 Kuehne,Thomas D.; Iannuzzi,Marcella; Del Ben,Mauro;
 Rybkin,Vladimir V.; Seewald,Patrick; Stein,Frederick; Laino,Teodoro;
 Khaliullin,Rustam Z.; Schuett,Ole; Schiffmann,Florian; Golze,Dorothea;
 Wilhelm,Jan; Chulkov,Sergey; Bani-Hashemian,Mohammad Hossein;
 Weber,Valery; Borstnik,Urban; Taillefumier,Mathieu;
 Jakobovits,Alice Shoshana; Lazzaro,Alfio; Pabst,Hans; Mueller,Tiziano;
 Schade,Robert; Guidon,Manuel; Andermatt,Samuel; Holmberg,Nico;
 Schenter,Gregory K.; Hehn,Anna; Bussy,Augustin; Belleflamme,Fabian;
 Tabacchi,Gloria; Gloess,Andreas; Lass,Michael; Bethune,Iain;
 Mundy,Christopher J.; Plessl,Christian; Watkins,Matt;
 VandeVondele,Joost; Krack,Matthias; Hutter,Juerg. 
 The Journal of Chemical Physics, 152 (19), (2020). 
 CP2K: An electronic structure and molecular dynamics software package -
 Quickstep: Efficient and accurate electronic structure calculations.
 https://doi.org/10.1063/5.0007045

 Goerigk, Lars; Hansen, Andreas; Bauer, Christoph; Ehrlich, Stephan;
 Najibi, Asim; Grimme, Stefan. , 19 (48), (2017). 
 A look at the density functional theory zoo with the advanced GMTKN55 database
 for general main group thermochemistry, kinetics and noncovalent interactions.
 https://doi.org/10.1039/C7CP04913G

 Schuett, Ole; Messmer, Peter; Hutter, Juerg; VandeVondele, Joost. 
 Electronic Structure Calculations on Graphics Processing Units, John
 Wiley & Sons, Ltd, 173-190 (2016). 
 GPU-Accelerated Sparse Matrix-Matrix Multiplication for
 Linear Scaling Density Functional Theory.
 https://doi.org/10.1002/9781118670712.ch8

 Borstnik, U; VandeVondele, J; Weber, V; Hutter, J. 
 PARALLEL COMPUTING, 40 (5-6), 47-58 (2014). 
 Sparse matrix multiplication: The distributed block-compressed sparse
 row library.
 https://doi.org/10.1016/j.parco.2014.03.012

 Hutter, J; Iannuzzi, M; Schiffmann, F; VandeVondele, J. 
 WIREs Comput Mol Sci., 4 (1), 15-25 (2014). 
 CP2K: atomistic simulations of condensed matter systems.
 https://doi.org/10.1002/wcms.1159

 Marek, A; Blum, V; Johanni, R; Havu, V; Lang, B; Auckenthaler, T;
 Heinecke, A; Bungartz, H; Lederer, H. 
 Journal of Physics: Condensed Matter, 26 (21), (2014). 
 The ELPA library: scalable parallel eigenvalue solutions for
 electronic structure
 theory and computational science.
 https://doi.org/10.1088/0953-8984/26/21/213201

 Grimme, S; Ehrlich, S; Goerigk, L. 
 JOURNAL OF COMPUTATIONAL CHEMISTRY, 32, 1456 (2011). 
 Effect of the damping function in dispersion corrected density functional theory.
 https://doi.org/10.1002/jcc.21759

 Grimme, S; Antony, J; Ehrlich, S; Krieg, H. 
 JOURNAL OF CHEMICAL PHYSICS, 132 (15), 154104 (2010). 
 A consistent and accurate ab initio parametrization of density
 functional dispersion correction (DFT-D) for the 94 elements H-Pu.
 https://doi.org/10.1063/1.3382344

 VandeVondele, J; Hutter, J. 
 JOURNAL OF CHEMICAL PHYSICS, 127 (11), 114105 (2007). 
 Gaussian basis sets for accurate calculations on molecular systems in
 gas and condensed phases.
 https://doi.org/10.1063/1.2770708

 Krack, M. 
 THEORETICAL CHEMISTRY ACCOUNTS, 114 (1-3), 145-152 (2005). 
 Pseudopotentials for H to Kr optimized for gradient-corrected
 exchange-correlation functionals.
 https://doi.org/10.1007/s00214-005-0655-y

 VandeVondele, J; Krack, M; Mohamed, F; Parrinello, M; Chassaing, T;
 Hutter, J. COMPUTER PHYSICS COMMUNICATIONS, 167 (2), 103-128 (2005). 
 QUICKSTEP: Fast and accurate density functional calculations using a
 mixed Gaussian and plane waves approach.
 https://doi.org/10.1016/j.cpc.2004.12.014

 Frigo, M; Johnson, SG. 
 PROCEEDINGS OF THE IEEE, 93 (2), 216-231 (2005). 
 The design and implementation of FFTW3.
 https://doi.org/10.1109/JPROC.2004.840301

 Hartwigsen, C; Goedecker, S; Hutter, J. 
 PHYSICAL REVIEW B, 58 (7), 3641-3662 (1998). 
 Relativistic separable dual-space Gaussian pseudopotentials from H to Rn.
 https://doi.org/10.1103/PhysRevB.58.3641

 Lippert, G; Hutter, J; Parrinello, M. 
 MOLECULAR PHYSICS, 92 (3), 477-487 (1997). 
 A hybrid Gaussian and plane wave density functional scheme.
 https://doi.org/10.1080/002689797170220

 Perdew, JP; Burke, K; Ernzerhof, M. 
 PHYSICAL REVIEW LETTERS, 77 (18), 3865-3868 (1996). 
 Generalized gradient approximation made simple.
 https://doi.org/10.1103/PhysRevLett.77.3865

 Goedecker, S; Teter, M; Hutter, J. 
 PHYSICAL REVIEW B, 54 (3), 1703-1710 (1996). 
 Separable dual-space Gaussian pseudopotentials.
 https://doi.org/10.1103/PhysRevB.54.1703


 -------------------------------------------------------------------------------
 -                                                                             -
 -                                T I M I N G                                  -
 -                                                                             -
 -------------------------------------------------------------------------------
 SUBROUTINE                       CALLS  ASD         SELF TIME        TOTAL TIME
                                MAXIMUM       AVERAGE  MAXIMUM  AVERAGE  MAXIMUM
 CP2K                                 1  1.0    2.877    3.897 8117.919 8117.941
 qs_energies                          5  2.0    0.043    0.153 8091.470 8092.559
 scf_env_do_scf                       5  3.0    0.002    0.018 8067.767 8068.211
 scf_env_do_scf_inner_loop          333  4.0    0.052    0.128 8067.764 8068.208
 qs_scf_new_mos                     333  5.0    0.051    0.148 4467.157 4468.753
 eigensolver                        333  6.0    0.787    1.019 4342.075 4343.043
 cp_fm_diag_elpa                    308  7.0    0.012    0.034 3150.906 3152.089
 cp_fm_diag_elpa_base               308  8.0 3142.200 3144.914 3147.662 3147.883
 qs_ks_update_qs_env                333  5.0    0.048    0.115 1631.510 1632.276
 rebuild_ks_matrix                  333  6.0    0.004    0.004 1626.689 1627.303
 qs_ks_build_kohn_sham_matrix       333  7.0    0.585    0.801 1626.685 1627.299
 qs_rho_update_rho_low              338  5.0    0.005    0.013 1263.380 1263.868
 calculate_rho_elec                 338  6.0    3.587    3.745 1263.376 1263.864
 cp_fm_triangular_multiply          999  7.0 1186.469 1188.642 1186.469 1188.642
 density_rs2pw                      338  7.0    0.329    1.034  997.548 1138.486
 sum_up_and_integrate               333  8.0   10.176   10.636 1023.828 1024.664
 integrate_v_rspace                 333  9.0    0.060    0.101 1013.651 1014.349
 pw_transfer                       4354  8.9    0.858    0.948  988.891 1003.172
 fft_wrap_pw1pw2                   3688  9.9    0.112    0.160  970.217  984.600
 fft_wrap_pw1pw2_150               1675 10.2   70.913   74.338  876.048  901.132
 rs_pw_transfer                    2689  9.5    0.091    0.119  674.197  811.620
 grid_collocate_task_list           338  7.0  244.173  756.620  244.173  756.620
 gspace_mixing                      328  5.0    3.356    3.457  707.414  707.517
 fft3d_ps                          3688 11.9  370.832  387.122  681.347  706.414
 grid_integrate_task_list           333 10.0  208.661  698.480  208.661  698.480
 mp_waitany                       10776 11.5  545.408  688.145  545.408  688.145
 rs_pw_transfer_RS2PW_150           343  9.0   15.647   21.294  433.602  678.086
 mp_alltoall_d11v                  4697  9.3  513.588  644.889  513.588  644.889
 rs_gather_matrices                 333 10.0    0.531    0.596  493.501  624.832
 broyden_mixing                     328  6.0  475.941  503.464  514.032  527.860
 rs_pw_transfer_RS2PW_50            338  9.0    5.334    6.770  121.163  441.817
 qs_vxc_create                      333  8.0    0.140    0.360  349.239  358.236
 xc_vxc_pw_create                   333  9.0    9.469   11.994  349.099  358.132
 potential_pw2rs                    333 10.0    0.520    0.570  311.429  312.111
 xc_rho_set_and_dset_create         333 10.0   12.266   14.968  249.500  269.652
 x_to_yz                           1998 13.2  111.237  114.889  182.103  198.137
 xc_functional_eval                 333 11.0    0.025    0.053  173.830  193.693
 pbe_lda_eval                       333 12.0  173.805  193.684  173.805  193.684
 xc_pw_derive                      1998 11.0    0.018    0.034  118.479  164.496
 pw_nn_compose_r                   1998 12.0   56.083   57.754  118.461  164.480
 -------------------------------------------------------------------------------

 The number of warnings for this run is : 6
 
 -------------------------------------------------------------------------------
  **** **** ******  **  PROGRAM ENDED AT                 2025-07-09 17:11:39.993
 ***** ** ***  *** **   PROGRAM RAN ON                                sebnode130
 **    ****   ******    PROGRAM RAN BY                                    luehrs
 ***** **    ** ** **   PROGRAM PROCESS ID                               1115926
  **** **  *******  **  PROGRAM STOPPED IN /home/luehrs/PhD/Sodium_batteries/Sod
                                           ium-graphene-curvature/Curved_surface
                                           _convex/Zig-Zag1
