 DBCSR| CPU Multiplication driver                                           BLAS (U)
 DBCSR| Multrec recursion limit                                              512 (U)
 DBCSR| Multiplication stack size                                           1000 (D)
 DBCSR| Maximum elements for images                                    UNLIMITED (U)
 DBCSR| Multiplicative factor virtual images                                   1 (U)
 DBCSR| Use multiplication densification                                       T (D)
 DBCSR| Multiplication size stacks                                             3 (U)
 DBCSR| Use memory pool for CPU allocation                                     F (U)
 DBCSR| Number of 3D layers                                               SINGLE (U)
 DBCSR| Use MPI memory allocation                                              F (U)
 DBCSR| Use RMA algorithm                                                      F (U)
 DBCSR| Use Communication thread                                               T (U)
 DBCSR| Communication thread load                                             87 (D)
 DBCSR| MPI: My process id                                                     0
 DBCSR| MPI: Number of processes                                              16
 DBCSR| OMP: Current number of threads                                         1
 DBCSR| OMP: Max number of threads                                             1
 DBCSR| Split modifier for TAS multiplication algorithm                  1.0E+00 (U)


  **** **** ******  **  PROGRAM STARTED AT               2025-04-16 13:43:14.575
 ***** ** ***  *** **   PROGRAM STARTED ON                            sebnode124
 **    ****   ******    PROGRAM STARTED BY                                luehrs
 ***** **    ** ** **   PROGRAM PROCESS ID                               1295466
  **** **  *******  **  PROGRAM STARTED IN /home/luehrs/PhD/Sodium_batteries/Sod
                                           ium-graphene-curvature/Curved_surface
                                           _convex/Zig-Zag1

 CP2K| version string:                                       CP2K version 2023.1
 CP2K| source code revision number:                                  git:b888bd8
 CP2K| cp2kflags: omp libint fftw3 libxc elpa parallel scalapack spglib         
 CP2K| is freely available from                            https://www.cp2k.org/
 CP2K| Program compiled at                          Tue Jan 10 19:52:03 UTC 2023
 CP2K| Program compiled on                                            x86-ubc-01
 CP2K| Program compiled for                                Linux-x86_64-gfortran
 CP2K| Data directory path                                       /usr/share/cp2k
 CP2K| Input file name                                            input.BSSE.inp

 GLOBAL| Force Environment number                                              1
 GLOBAL| Basis set file name                                      ./BASIS_MOLOPT
 GLOBAL| Potential file name                                    ./GTH_POTENTIALS
 GLOBAL| MM Potential file name                                     MM_POTENTIAL
 GLOBAL| Coordinate file name                           coords_sur_1_relaxed.xyz
 GLOBAL| Method name                                                        CP2K
 GLOBAL| Project name                                       curv_sur_1_BSSE_BLYP
 GLOBAL| Run type                                                           BSSE
 GLOBAL| FFT library                                                       FFTW3
 GLOBAL| Diagonalization library                                            ELPA
 GLOBAL| DGEMM library                                                      BLAS
 GLOBAL| Minimum number of eigenvectors for ELPA usage                        16
 GLOBAL| Orthonormality check for eigenvectors                          DISABLED
 GLOBAL| Matrix multiplication library                                 ScaLAPACK
 GLOBAL| All-to-all communication in single precision                          F
 GLOBAL| FFTs using library dependent lengths                                  F
 GLOBAL| Grid backend                                                       AUTO
 GLOBAL| Global print level                                                  LOW
 GLOBAL| MPI I/O enabled                                                       T
 GLOBAL| Total number of message passing processes                            16
 GLOBAL| Number of threads for this process                                    1
 GLOBAL| This output is from process                                           0
 GLOBAL| Stack size for threads created by OpenMP (OMP_STACKSIZE)        default
 GLOBAL| CPU model name                          AMD EPYC 7502 32-Core Processor

 MEMORY| system memory details [Kb]
 MEMORY|                        rank 0           min           max       average
 MEMORY| MemTotal            131834288     131834288     131834288     131834288
 MEMORY| MemFree             114454304     114454304     114454304     114454304
 MEMORY| Buffers                377552        377552        377552        377552
 MEMORY| Cached               12236008      12236008      12236008      12236008
 MEMORY| Slab                   821848        821848        821848        821848
 MEMORY| SReclaimable           196924        196924        196924        196924
 MEMORY| MemLikelyFree       127264788     127264788     127264788     127264788


 GENERATE|  Preliminary Number of Bonds generated:                             0
 GENERATE|  Achieved consistency in connectivity generation.

 *******************************************************************************
 *******************************************************************************
 **                                                                           **
 **     #####                         ##              ##                      **
 **    ##   ##            ##          ##              ##                      **
 **   ##     ##                       ##            ######                    **
 **   ##     ##  ##   ##  ##   #####  ##  ##   ####   ##    #####    #####    **
 **   ##     ##  ##   ##  ##  ##      ## ##   ##      ##   ##   ##  ##   ##   **
 **   ##  ## ##  ##   ##  ##  ##      ####     ###    ##   ######   ######    **
 **    ##  ###   ##   ##  ##  ##      ## ##      ##   ##   ##       ##        **
 **     #######   #####   ##   #####  ##  ##  ####    ##    #####   ##        **
 **           ##                                                    ##        **
 **                                                                           **
 **                                                ... make the atoms dance   **
 **                                                                           **
 **            Copyright (C) by CP2K developers group (2000-2022)             **
 **                      J. Chem. Phys. 152, 194103 (2020)                    **
 **                                                                           **
 *******************************************************************************


 TOTAL NUMBERS AND MAXIMUM NUMBERS

  Total number of            - Atomic kinds:                                   2
                             - Atoms:                                        225
                             - Shell sets:                                   225
                             - Shells:                                      1125
                             - Primitive Cartesian functions:               1127
                             - Cartesian basis functions:                   3145
                             - Spherical basis functions:                   2921

  Maximum angular momentum of- Orbital basis functions:                        2
                             - Local part of the GTH pseudopotential:          2
                             - Non-local part of the GTH pseudopotential:      1


 SCF PARAMETERS         Density guess:                                    ATOMIC
                        --------------------------------------------------------
                        max_scf:                                             100
                        max_scf_history:                                       0
                        max_diis:                                              4
                        --------------------------------------------------------
                        eps_scf:                                        3.00E-07
                        eps_scf_history:                                0.00E+00
                        eps_diis:                                       1.00E-01
                        eps_eigval:                                     1.00E-05
                        --------------------------------------------------------
                        level_shift [a.u.]:                             0.000000
                        added MOs                                       100    0
                        --------------------------------------------------------
                        Mixing method:                            BROYDEN_MIXING
                                                charge density mixing in g-space
                        --------------------------------------------------------
                        Smear method:                                FERMI_DIRAC
                        Electronic temperature [K]:                        300.0
                        Electronic temperature [a.u.]:                  9.50E-04
                        Accuracy threshold:                             1.00E-10
                        --------------------------------------------------------
                        Outer loop SCF in use 
                        No variables optimised in outer loop
                        eps_scf                                         1.00E-06
                        max_scf                                               30
                        DIIS optimization
                        DIIS buffer length                                     3
                        step_size                                       5.00E-01

 -------------------------------------------------------------------------------
 -                                                                             -
 -  BSSE CALCULATION         FRAGMENT CONF: 10        FRAGMENT SUBCONF: 10     -
 -                           CHARGE =     0           MULTIPLICITY =     0     -
 -                                                                             -
 -                 ATOM INDEX                              ATOM NAME           -
 -                 ----------                              ---------           -
 -                      1                                   C                  -
 -                      2                                   C                  -
 -                      3                                   C                  -
 -                      4                                   C                  -
 -                      5                                   C                  -
 -                      6                                   C                  -
 -                      7                                   C                  -
 -                      8                                   C                  -
 -                      9                                   C                  -
 -                     10                                   C                  -
 -                     11                                   C                  -
 -                     12                                   C                  -
 -                     13                                   C                  -
 -                     14                                   C                  -
 -                     15                                   C                  -
 -                     16                                   C                  -
 -                     17                                   C                  -
 -                     18                                   C                  -
 -                     19                                   C                  -
 -                     20                                   C                  -
 -                     21                                   C                  -
 -                     22                                   C                  -
 -                     23                                   C                  -
 -                     24                                   C                  -
 -                     25                                   C                  -
 -                     26                                   C                  -
 -                     27                                   C                  -
 -                     28                                   C                  -
 -                     29                                   C                  -
 -                     30                                   C                  -
 -                     31                                   C                  -
 -                     32                                   C                  -
 -                     33                                   C                  -
 -                     34                                   C                  -
 -                     35                                   C                  -
 -                     36                                   C                  -
 -                     37                                   C                  -
 -                     38                                   C                  -
 -                     39                                   C                  -
 -                     40                                   C                  -
 -                     41                                   C                  -
 -                     42                                   C                  -
 -                     43                                   C                  -
 -                     44                                   C                  -
 -                     45                                   C                  -
 -                     46                                   C                  -
 -                     47                                   C                  -
 -                     48                                   C                  -
 -                     49                                   C                  -
 -                     50                                   C                  -
 -                     51                                   C                  -
 -                     52                                   C                  -
 -                     53                                   C                  -
 -                     54                                   C                  -
 -                     55                                   C                  -
 -                     56                                   C                  -
 -                     57                                   C                  -
 -                     58                                   C                  -
 -                     59                                   C                  -
 -                     60                                   C                  -
 -                     61                                   C                  -
 -                     62                                   C                  -
 -                     63                                   C                  -
 -                     64                                   C                  -
 -                     65                                   C                  -
 -                     66                                   C                  -
 -                     67                                   C                  -
 -                     68                                   C                  -
 -                     69                                   C                  -
 -                     70                                   C                  -
 -                     71                                   C                  -
 -                     72                                   C                  -
 -                     73                                   C                  -
 -                     74                                   C                  -
 -                     75                                   C                  -
 -                     76                                   C                  -
 -                     77                                   C                  -
 -                     78                                   C                  -
 -                     79                                   C                  -
 -                     80                                   C                  -
 -                     81                                   C                  -
 -                     82                                   C                  -
 -                     83                                   C                  -
 -                     84                                   C                  -
 -                     85                                   C                  -
 -                     86                                   C                  -
 -                     87                                   C                  -
 -                     88                                   C                  -
 -                     89                                   C                  -
 -                     90                                   C                  -
 -                     91                                   C                  -
 -                     92                                   C                  -
 -                     93                                   C                  -
 -                     94                                   C                  -
 -                     95                                   C                  -
 -                     96                                   C                  -
 -                     97                                   C                  -
 -                     98                                   C                  -
 -                     99                                   C                  -
 -                    100                                   C                  -
 -                    101                                   C                  -
 -                    102                                   C                  -
 -                    103                                   C                  -
 -                    104                                   C                  -
 -                    105                                   C                  -
 -                    106                                   C                  -
 -                    107                                   C                  -
 -                    108                                   C                  -
 -                    109                                   C                  -
 -                    110                                   C                  -
 -                    111                                   C                  -
 -                    112                                   C                  -
 -                    113                                   C                  -
 -                    114                                   C                  -
 -                    115                                   C                  -
 -                    116                                   C                  -
 -                    117                                   C                  -
 -                    118                                   C                  -
 -                    119                                   C                  -
 -                    120                                   C                  -
 -                    121                                   C                  -
 -                    122                                   C                  -
 -                    123                                   C                  -
 -                    124                                   C                  -
 -                    125                                   C                  -
 -                    126                                   C                  -
 -                    127                                   C                  -
 -                    128                                   C                  -
 -                    129                                   C                  -
 -                    130                                   C                  -
 -                    131                                   C                  -
 -                    132                                   C                  -
 -                    133                                   C                  -
 -                    134                                   C                  -
 -                    135                                   C                  -
 -                    136                                   C                  -
 -                    137                                   C                  -
 -                    138                                   C                  -
 -                    139                                   C                  -
 -                    140                                   C                  -
 -                    141                                   C                  -
 -                    142                                   C                  -
 -                    143                                   C                  -
 -                    144                                   C                  -
 -                    145                                   C                  -
 -                    146                                   C                  -
 -                    147                                   C                  -
 -                    148                                   C                  -
 -                    149                                   C                  -
 -                    150                                   C                  -
 -                    151                                   C                  -
 -                    152                                   C                  -
 -                    153                                   C                  -
 -                    154                                   C                  -
 -                    155                                   C                  -
 -                    156                                   C                  -
 -                    157                                   C                  -
 -                    158                                   C                  -
 -                    159                                   C                  -
 -                    160                                   C                  -
 -                    161                                   C                  -
 -                    162                                   C                  -
 -                    163                                   C                  -
 -                    164                                   C                  -
 -                    165                                   C                  -
 -                    166                                   C                  -
 -                    167                                   C                  -
 -                    168                                   C                  -
 -                    169                                   C                  -
 -                    170                                   C                  -
 -                    171                                   C                  -
 -                    172                                   C                  -
 -                    173                                   C                  -
 -                    174                                   C                  -
 -                    175                                   C                  -
 -                    176                                   C                  -
 -                    177                                   C                  -
 -                    178                                   C                  -
 -                    179                                   C                  -
 -                    180                                   C                  -
 -                    181                                   C                  -
 -                    182                                   C                  -
 -                    183                                   C                  -
 -                    184                                   C                  -
 -                    185                                   C                  -
 -                    186                                   C                  -
 -                    187                                   C                  -
 -                    188                                   C                  -
 -                    189                                   C                  -
 -                    190                                   C                  -
 -                    191                                   C                  -
 -                    192                                   C                  -
 -                    193                                   C                  -
 -                    194                                   C                  -
 -                    195                                   C                  -
 -                    196                                   C                  -
 -                    197                                   C                  -
 -                    198                                   C                  -
 -                    199                                   C                  -
 -                    200                                   C                  -
 -                    201                                   C                  -
 -                    202                                   C                  -
 -                    203                                   C                  -
 -                    204                                   C                  -
 -                    205                                   C                  -
 -                    206                                   C                  -
 -                    207                                   C                  -
 -                    208                                   C                  -
 -                    209                                   C                  -
 -                    210                                   C                  -
 -                    211                                   C                  -
 -                    212                                   C                  -
 -                    213                                   C                  -
 -                    214                                   C                  -
 -                    215                                   C                  -
 -                    216                                   C                  -
 -                    217                                   C                  -
 -                    218                                   C                  -
 -                    219                                   C                  -
 -                    220                                   C                  -
 -                    221                                   C                  -
 -                    222                                   C                  -
 -                    223                                   C                  -
 -                    224                                   C                  -
 -------------------------------------------------------------------------------

 *******************************************************************************
 *******************************************************************************
 **                                                                           **
 **     #####                         ##              ##                      **
 **    ##   ##            ##          ##              ##                      **
 **   ##     ##                       ##            ######                    **
 **   ##     ##  ##   ##  ##   #####  ##  ##   ####   ##    #####    #####    **
 **   ##     ##  ##   ##  ##  ##      ## ##   ##      ##   ##   ##  ##   ##   **
 **   ##  ## ##  ##   ##  ##  ##      ####     ###    ##   ######   ######    **
 **    ##  ###   ##   ##  ##  ##      ## ##      ##   ##   ##       ##        **
 **     #######   #####   ##   #####  ##  ##  ####    ##    #####   ##        **
 **           ##                                                    ##        **
 **                                                                           **
 **                                                ... make the atoms dance   **
 **                                                                           **
 **            Copyright (C) by CP2K developers group (2000-2022)             **
 **                      J. Chem. Phys. 152, 194103 (2020)                    **
 **                                                                           **
 *******************************************************************************


 TOTAL NUMBERS AND MAXIMUM NUMBERS

  Total number of            - Atomic kinds:                                   1
                             - Atoms:                                        224
                             - Shell sets:                                   224
                             - Shells:                                      1120
                             - Primitive Cartesian functions:               1120
                             - Cartesian basis functions:                   3136
                             - Spherical basis functions:                   2912

  Maximum angular momentum of- Orbital basis functions:                        2
                             - Local part of the GTH pseudopotential:          2
                             - Non-local part of the GTH pseudopotential:      0


 SCF PARAMETERS         Density guess:                                    ATOMIC
                        --------------------------------------------------------
                        max_scf:                                             100
                        max_scf_history:                                       0
                        max_diis:                                              4
                        --------------------------------------------------------
                        eps_scf:                                        3.00E-07
                        eps_scf_history:                                0.00E+00
                        eps_diis:                                       1.00E-01
                        eps_eigval:                                     1.00E-05
                        --------------------------------------------------------
                        level_shift [a.u.]:                             0.000000
                        added MOs                                       100    0
                        --------------------------------------------------------
                        Mixing method:                            BROYDEN_MIXING
                                                charge density mixing in g-space
                        --------------------------------------------------------
                        Smear method:                                FERMI_DIRAC
                        Electronic temperature [K]:                        300.0
                        Electronic temperature [a.u.]:                  9.50E-04
                        Accuracy threshold:                             1.00E-10
                        --------------------------------------------------------
                        Outer loop SCF in use 
                        No variables optimised in outer loop
                        eps_scf                                         1.00E-06
                        max_scf                                               30
                        DIIS optimization
                        DIIS buffer length                                     3
                        step_size                                       5.00E-01

 Number of electrons:                                                        896
 Number of occupied orbitals:                                                448
 Number of molecular orbitals:                                               548

 Number of orbital functions:                                               2912
 Number of independent orbital functions:                                   2912

 Extrapolation method: initial_guess


 SCF WAVEFUNCTION OPTIMIZATION

  Step     Update method      Time    Convergence         Total energy    Change
  ------------------------------------------------------------------------------
     1 NoMix/Diag. 0.10E+00    9.1     0.92693704     -1266.1114756354 -1.27E+03
     2 Broy./Diag. 0.10E+00   12.2     0.27493816     -1215.5874096719  5.05E+01
     3 Broy./Diag. 0.10E+00   12.4     0.06647379     -1223.1809303725 -7.59E+00
     4 Broy./Diag. 0.10E+00   12.5     0.11521735     -1256.7352998454 -3.36E+01
     5 Broy./Diag. 0.10E+00   12.6     0.07356160     -1270.3264972204 -1.36E+01
     6 Broy./Diag. 0.10E+00   12.8     0.08532617     -1271.2986495872 -9.72E-01
     7 Broy./Diag. 0.10E+00   12.9     0.08693063     -1272.0326021937 -7.34E-01
     8 Broy./Diag. 0.10E+00   13.1     0.01834893     -1272.8863127520 -8.54E-01
     9 Broy./Diag. 0.10E+00   13.3     0.05556648     -1273.2483133720 -3.62E-01
    10 Broy./Diag. 0.10E+00   13.6     0.03554740     -1273.6439532935 -3.96E-01
    11 Broy./Diag. 0.10E+00   13.6     0.00951067     -1273.8017141256 -1.58E-01
    12 Broy./Diag. 0.10E+00   13.6     0.00293786     -1274.0846026548 -2.83E-01
    13 Broy./Diag. 0.10E+00   13.6     0.00106507     -1274.3197396155 -2.35E-01
    14 Broy./Diag. 0.10E+00   13.6     0.00417120     -1274.4137029275 -9.40E-02
    15 Broy./Diag. 0.10E+00   13.6     0.00390878     -1274.5417998920 -1.28E-01
    16 Broy./Diag. 0.10E+00   13.6     0.00311380     -1274.6425294157 -1.01E-01
    17 Broy./Diag. 0.10E+00   13.6     0.00291958     -1274.6911958809 -4.87E-02
    18 Broy./Diag. 0.10E+00   13.6     0.00405582     -1274.6681497760  2.30E-02
    19 Broy./Diag. 0.10E+00   13.6     0.00322293     -1274.6328072951  3.53E-02
    20 Broy./Diag. 0.10E+00   13.6     0.00080103     -1274.6244808104  8.33E-03
    21 Broy./Diag. 0.10E+00   13.6     0.00044443     -1274.6398451667 -1.54E-02
    22 Broy./Diag. 0.10E+00   13.6     0.00012751     -1274.6516283282 -1.18E-02
    23 Broy./Diag. 0.10E+00   13.6     0.00054290     -1274.6536814423 -2.05E-03
    24 Broy./Diag. 0.10E+00   13.6     0.00041608     -1274.6835556479 -2.99E-02
    25 Broy./Diag. 0.10E+00   13.6     0.00015349     -1274.7115758679 -2.80E-02
    26 Broy./Diag. 0.10E+00   13.6     0.00039670     -1274.7282599372 -1.67E-02
    27 Broy./Diag. 0.10E+00   13.6     0.00057728     -1274.7510053357 -2.27E-02
    28 Broy./Diag. 0.10E+00   13.7     0.00069625     -1274.7584425109 -7.44E-03
    29 Broy./Diag. 0.10E+00   13.7     0.00073456     -1274.7566850323  1.76E-03
    30 Broy./Diag. 0.10E+00   13.7     0.00047920     -1274.7442008738  1.25E-02
    31 Broy./Diag. 0.10E+00   13.6     0.00023796     -1274.7391070949  5.09E-03
    32 Broy./Diag. 0.10E+00   13.7     0.00037016     -1274.7366469168  2.46E-03
    33 Broy./Diag. 0.10E+00   13.6     0.00045188     -1274.7356419676  1.00E-03
    34 Broy./Diag. 0.10E+00   13.6     0.00022063     -1274.7346783540  9.64E-04
    35 Broy./Diag. 0.10E+00   13.7     0.00003561     -1274.7333001401  1.38E-03
    36 Broy./Diag. 0.10E+00   13.7     0.00012421     -1274.7322917603  1.01E-03
    37 Broy./Diag. 0.10E+00   13.6     0.00009327     -1274.7327185773 -4.27E-04
    38 Broy./Diag. 0.10E+00   13.7     0.00015460     -1274.7348590649 -2.14E-03
    39 Broy./Diag. 0.10E+00   13.7     0.00020774     -1274.7369536099 -2.09E-03
    40 Broy./Diag. 0.10E+00   13.7     0.00015797     -1274.7402491359 -3.30E-03
    41 Broy./Diag. 0.10E+00   13.6     0.00005659     -1274.7420043139 -1.76E-03
    42 Broy./Diag. 0.10E+00   13.6     0.00006776     -1274.7428971995 -8.93E-04
    43 Broy./Diag. 0.10E+00   13.6     0.00010722     -1274.7439599469 -1.06E-03
    44 Broy./Diag. 0.10E+00   13.6     0.00008269     -1274.7451049477 -1.15E-03
    45 Broy./Diag. 0.10E+00   23.6     0.00002211     -1274.7464592764 -1.35E-03
    46 Broy./Diag. 0.10E+00   26.0     0.00002516     -1274.7472344656 -7.75E-04
    47 Broy./Diag. 0.10E+00   26.2     0.00002883     -1274.7476844565 -4.50E-04
    48 Broy./Diag. 0.10E+00   26.7     0.00009795     -1274.7471723560  5.12E-04
    49 Broy./Diag. 0.10E+00   25.9     0.00009808     -1274.7474527694 -2.80E-04
    50 Broy./Diag. 0.10E+00   26.3     0.00005598     -1274.7472126701  2.40E-04
    51 Broy./Diag. 0.10E+00   26.7     0.00003200     -1274.7472116896  9.80E-07
    52 Broy./Diag. 0.10E+00   26.0     0.00004309     -1274.7471956063  1.61E-05
    53 Broy./Diag. 0.10E+00   24.3     0.00003462     -1274.7473162641 -1.21E-04
    54 Broy./Diag. 0.10E+00   24.8     0.00003145     -1274.7478584043 -5.42E-04
    55 Broy./Diag. 0.10E+00   25.0     0.00001779     -1274.7481316414 -2.73E-04
    56 Broy./Diag. 0.10E+00   25.3     0.00000917     -1274.7485333051 -4.02E-04
    57 Broy./Diag. 0.10E+00   25.8     0.00000902     -1274.7489399139 -4.07E-04
    58 Broy./Diag. 0.10E+00   27.3     0.00002396     -1274.7495760706 -6.36E-04
    59 Broy./Diag. 0.10E+00   26.4     0.00002709     -1274.7500378850 -4.62E-04
    60 Broy./Diag. 0.10E+00   24.7     0.00001794     -1274.7502463711 -2.08E-04
    61 Broy./Diag. 0.10E+00   25.5     0.00001312     -1274.7502590237 -1.27E-05
    62 Broy./Diag. 0.10E+00   26.9     0.00001510     -1274.7502765515 -1.75E-05
    63 Broy./Diag. 0.10E+00   26.9     0.00000920     -1274.7502093184  6.72E-05
    64 Broy./Diag. 0.10E+00   26.1     0.00001167     -1274.7499265176  2.83E-04
    65 Broy./Diag. 0.10E+00   25.6     0.00000792     -1274.7498293299  9.72E-05
    66 Broy./Diag. 0.10E+00   26.4     0.00000275     -1274.7497436085  8.57E-05
    67 Broy./Diag. 0.10E+00   26.4     0.00000245     -1274.7496780688  6.55E-05
    68 Broy./Diag. 0.10E+00   26.1     0.00000554     -1274.7495767930  1.01E-04
    69 Broy./Diag. 0.10E+00   27.4     0.00000711     -1274.7495175671  5.92E-05
    70 Broy./Diag. 0.10E+00   26.9     0.00000645     -1274.7495111719  6.40E-06
    71 Broy./Diag. 0.10E+00   24.6     0.00000580     -1274.7496155132 -1.04E-04
    72 Broy./Diag. 0.10E+00   27.0     0.00000432     -1274.7496677556 -5.22E-05
    73 Broy./Diag. 0.10E+00   27.0     0.00000224     -1274.7497096440 -4.19E-05
    74 Broy./Diag. 0.10E+00   29.5     0.00000316     -1274.7498041249 -9.45E-05
    75 Broy./Diag. 0.10E+00   29.1     0.00000235     -1274.7498505789 -4.65E-05
    76 Broy./Diag. 0.10E+00   28.3     0.00000096     -1274.7498889918 -3.84E-05
    77 Broy./Diag. 0.10E+00   27.6     0.00000089     -1274.7499222390 -3.32E-05
    78 Broy./Diag. 0.10E+00   27.8     0.00000122     -1274.7499614023 -3.92E-05
    79 Broy./Diag. 0.10E+00   24.9     0.00000181     -1274.7499936325 -3.22E-05
    80 Broy./Diag. 0.10E+00   26.5     0.00000189     -1274.7499997766 -6.14E-06
    81 Broy./Diag. 0.10E+00   27.4     0.00000155     -1274.7499856634  1.41E-05
    82 Broy./Diag. 0.10E+00   27.3     0.00000090     -1274.7499919737 -6.31E-06
    83 Broy./Diag. 0.10E+00   27.2     0.00000059     -1274.7499902845  1.69E-06
    84 Broy./Diag. 0.10E+00   27.3     0.00000068     -1274.7499855263  4.76E-06
    85 Broy./Diag. 0.10E+00   27.7     0.00000055     -1274.7499939843 -8.46E-06
    86 Broy./Diag. 0.10E+00   27.1     0.00000027     -1274.7499981725 -4.19E-06

  *** SCF run converged in    86 steps ***


  Electronic density on regular grids:       -896.0000000000        0.0000000000
  Core density on regular grids:              895.9999999992       -0.0000000008
  Total charge density on r-space grids:       -0.0000000008
  Total charge density g-space grids:          -0.0000000008

  Overlap energy of the core charge distribution:               0.00005425450152
  Self energy of the core charge distribution:              -2990.62154893316665
  Core Hamiltonian energy:                                    940.36229803041761
  Hartree energy:                                            1167.48184207792610
  Exchange-correlation energy:                               -391.48236376428588
  Dispersion energy:                                           -0.48344866945712
  Electronic entropic energy:                                  -0.00683117012000
  Fermi energy:                                                -0.15050495256846

  Total energy:                                             -1274.74999817246839

  outer SCF iter =    1 RMS gradient =   0.27E-06 energy =      -1274.7499981725
  outer SCF loop converged in   1 iterations or   86 steps


 *** WARNING in qs_loc_utils.F:1500 :: User requested the calculation of ***
 *** the localized wavefunction but the section LOCALIZE was not         ***
 *** specified. Localization will not be performed!                      ***


 -------------------------------------------------------------------------------
 -                                                                             -
 -  BSSE CALCULATION         FRAGMENT CONF: 01        FRAGMENT SUBCONF: 01     -
 -                           CHARGE =     0           MULTIPLICITY =     0     -
 -                                                                             -
 -                 ATOM INDEX                              ATOM NAME           -
 -                 ----------                              ---------           -
 -                    225                                   Na                 -
 -------------------------------------------------------------------------------

 *******************************************************************************
 *******************************************************************************
 **                                                                           **
 **     #####                         ##              ##                      **
 **    ##   ##            ##          ##              ##                      **
 **   ##     ##                       ##            ######                    **
 **   ##     ##  ##   ##  ##   #####  ##  ##   ####   ##    #####    #####    **
 **   ##     ##  ##   ##  ##  ##      ## ##   ##      ##   ##   ##  ##   ##   **
 **   ##  ## ##  ##   ##  ##  ##      ####     ###    ##   ######   ######    **
 **    ##  ###   ##   ##  ##  ##      ## ##      ##   ##   ##       ##        **
 **     #######   #####   ##   #####  ##  ##  ####    ##    #####   ##        **
 **           ##                                                    ##        **
 **                                                                           **
 **                                                ... make the atoms dance   **
 **                                                                           **
 **            Copyright (C) by CP2K developers group (2000-2022)             **
 **                      J. Chem. Phys. 152, 194103 (2020)                    **
 **                                                                           **
 *******************************************************************************

 *** WARNING in qs_environment.F:1486 :: More added MOs requested than     ***
 *** available. The full set of unoccupied MOs will be used. Use           ***
 *** 'ADDED_MOS -1' to always use all available MOs and to get rid of this ***
 *** warning.                                                              ***



 TOTAL NUMBERS AND MAXIMUM NUMBERS

  Total number of            - Atomic kinds:                                   1
                             - Atoms:                                          1
                             - Shell sets:                                     1
                             - Shells:                                         5
                             - Primitive Cartesian functions:                  7
                             - Cartesian basis functions:                      9
                             - Spherical basis functions:                      9

  Maximum angular momentum of- Orbital basis functions:                        1
                             - Local part of the GTH pseudopotential:          2
                             - Non-local part of the GTH pseudopotential:      1


 SCF PARAMETERS         Density guess:                                    ATOMIC
                        --------------------------------------------------------
                        max_scf:                                             100
                        max_scf_history:                                       0
                        max_diis:                                              4
                        --------------------------------------------------------
                        eps_scf:                                        3.00E-07
                        eps_scf_history:                                0.00E+00
                        eps_diis:                                       1.00E-01
                        eps_eigval:                                     1.00E-05
                        --------------------------------------------------------
                        level_shift [a.u.]:                             0.000000
                        added MOs                                         4    0
                        --------------------------------------------------------
                        Mixing method:                            BROYDEN_MIXING
                                                charge density mixing in g-space
                        --------------------------------------------------------
                        Smear method:                                FERMI_DIRAC
                        Electronic temperature [K]:                        300.0
                        Electronic temperature [a.u.]:                  9.50E-04
                        Accuracy threshold:                             1.00E-10
                        --------------------------------------------------------
                        Outer loop SCF in use 
                        No variables optimised in outer loop
                        eps_scf                                         1.00E-06
                        max_scf                                               30
                        DIIS optimization
                        DIIS buffer length                                     3
                        step_size                                       5.00E-01

 Number of electrons:                                                          9
 Number of occupied orbitals:                                                  5
 Number of molecular orbitals:                                                 9

 Number of orbital functions:                                                  9
 Number of independent orbital functions:                                      9

 Extrapolation method: initial_guess


 SCF WAVEFUNCTION OPTIMIZATION

  Step     Update method      Time    Convergence         Total energy    Change
  ------------------------------------------------------------------------------
     1 NoMix/Diag. 0.10E+00    2.8     0.02121109       -47.1529591243 -4.72E+01
     2 Broy./Diag. 0.10E+00    5.5     0.00009691       -47.1097268084  4.32E-02
     3 Broy./Diag. 0.10E+00    7.4     0.00099905       -47.1510516276 -4.13E-02
     4 Broy./Diag. 0.10E+00    6.2     0.00002470       -47.1588298254 -7.78E-03
     5 Broy./Diag. 0.10E+00    6.4     0.00026052       -47.1587955855  3.42E-05
     6 Broy./Diag. 0.10E+00    7.7     0.00000848       -47.1589016100 -1.06E-04
     7 Broy./Diag. 0.10E+00    6.8     0.00014563       -47.1571654868  1.74E-03
     8 Broy./Diag. 0.10E+00    7.0     0.00001835       -47.1561761175  9.89E-04
     9 Broy./Diag. 0.10E+00    8.4     0.00019378       -47.1555245697  6.52E-04
    10 Broy./Diag. 0.10E+00    7.1     0.00001009       -47.1551315811  3.93E-04
    11 Broy./Diag. 0.10E+00    8.7     0.00009720       -47.1549263841  2.05E-04
    12 Broy./Diag. 0.10E+00    7.2     0.00000303       -47.1548636194  6.28E-05
    13 Broy./Diag. 0.10E+00    7.2     0.00000789       -47.1549634737 -9.99E-05
    14 Broy./Diag. 0.10E+00    8.7     0.00000085       -47.1549808968 -1.74E-05
    15 Broy./Diag. 0.10E+00    7.1     0.00001294       -47.1548130486  1.68E-04
    16 Broy./Diag. 0.10E+00    8.6     0.00000265       -47.1547827405  3.03E-05
    17 Broy./Diag. 0.10E+00    7.3     0.00000281       -47.1548213056 -3.86E-05
    18 Broy./Diag. 0.10E+00    7.4     0.00000207       -47.1548640515 -4.27E-05
    19 Broy./Diag. 0.10E+00    8.8     0.00000147       -47.1548824114 -1.84E-05
    20 Broy./Diag. 0.10E+00    7.0     0.00000251       -47.1548770405  5.37E-06
    21 Broy./Diag. 0.10E+00    8.3     0.00000293       -47.1548548972  2.21E-05
    22 Broy./Diag. 0.10E+00    7.6     0.00000460       -47.1548242588  3.06E-05
    23 Broy./Diag. 0.10E+00    7.5     0.00000319       -47.1548041817  2.01E-05
    24 Broy./Diag. 0.10E+00    9.0     0.00000122       -47.1548023390  1.84E-06
    25 Broy./Diag. 0.10E+00    7.1     0.00000030       -47.1548105826 -8.24E-06
    26 Broy./Diag. 0.10E+00    8.6     0.00000019       -47.1548093026  1.28E-06

  *** SCF run converged in    26 steps ***


  Electronic density on regular grids:         -9.0003207664       -0.0003207664
  Core density on regular grids:                9.0000000000       -0.0000000000
  Total charge density on r-space grids:       -0.0003207664
  Total charge density g-space grids:          -0.0003207664

  Overlap energy of the core charge distribution:               0.00000000000000
  Self energy of the core charge distribution:                -97.66279648848419
  Core Hamiltonian energy:                                     29.99119950568019
  Hartree energy:                                              27.56118571458622
  Exchange-correlation energy:                                 -7.04308030392242
  Dispersion energy:                                           -0.00000068898532
  Electronic entropic energy:                                  -0.00131704147593
  Fermi energy:                                                -0.09172504485507

  Total energy:                                               -47.15480930260145

  outer SCF iter =    1 RMS gradient =   0.19E-06 energy =        -47.1548093026
  outer SCF loop converged in   1 iterations or   26 steps


 *** WARNING in qs_loc_utils.F:1500 :: User requested the calculation of ***
 *** the localized wavefunction but the section LOCALIZE was not         ***
 *** specified. Localization will not be performed!                      ***


 -------------------------------------------------------------------------------
 -                                                                             -
 -  BSSE CALCULATION         FRAGMENT CONF: 11        FRAGMENT SUBCONF: 10     -
 -                           CHARGE =     0           MULTIPLICITY =     0     -
 -                                                                             -
 -                 ATOM INDEX                              ATOM NAME           -
 -                 ----------                              ---------           -
 -                      1                                   C                  -
 -                      2                                   C                  -
 -                      3                                   C                  -
 -                      4                                   C                  -
 -                      5                                   C                  -
 -                      6                                   C                  -
 -                      7                                   C                  -
 -                      8                                   C                  -
 -                      9                                   C                  -
 -                     10                                   C                  -
 -                     11                                   C                  -
 -                     12                                   C                  -
 -                     13                                   C                  -
 -                     14                                   C                  -
 -                     15                                   C                  -
 -                     16                                   C                  -
 -                     17                                   C                  -
 -                     18                                   C                  -
 -                     19                                   C                  -
 -                     20                                   C                  -
 -                     21                                   C                  -
 -                     22                                   C                  -
 -                     23                                   C                  -
 -                     24                                   C                  -
 -                     25                                   C                  -
 -                     26                                   C                  -
 -                     27                                   C                  -
 -                     28                                   C                  -
 -                     29                                   C                  -
 -                     30                                   C                  -
 -                     31                                   C                  -
 -                     32                                   C                  -
 -                     33                                   C                  -
 -                     34                                   C                  -
 -                     35                                   C                  -
 -                     36                                   C                  -
 -                     37                                   C                  -
 -                     38                                   C                  -
 -                     39                                   C                  -
 -                     40                                   C                  -
 -                     41                                   C                  -
 -                     42                                   C                  -
 -                     43                                   C                  -
 -                     44                                   C                  -
 -                     45                                   C                  -
 -                     46                                   C                  -
 -                     47                                   C                  -
 -                     48                                   C                  -
 -                     49                                   C                  -
 -                     50                                   C                  -
 -                     51                                   C                  -
 -                     52                                   C                  -
 -                     53                                   C                  -
 -                     54                                   C                  -
 -                     55                                   C                  -
 -                     56                                   C                  -
 -                     57                                   C                  -
 -                     58                                   C                  -
 -                     59                                   C                  -
 -                     60                                   C                  -
 -                     61                                   C                  -
 -                     62                                   C                  -
 -                     63                                   C                  -
 -                     64                                   C                  -
 -                     65                                   C                  -
 -                     66                                   C                  -
 -                     67                                   C                  -
 -                     68                                   C                  -
 -                     69                                   C                  -
 -                     70                                   C                  -
 -                     71                                   C                  -
 -                     72                                   C                  -
 -                     73                                   C                  -
 -                     74                                   C                  -
 -                     75                                   C                  -
 -                     76                                   C                  -
 -                     77                                   C                  -
 -                     78                                   C                  -
 -                     79                                   C                  -
 -                     80                                   C                  -
 -                     81                                   C                  -
 -                     82                                   C                  -
 -                     83                                   C                  -
 -                     84                                   C                  -
 -                     85                                   C                  -
 -                     86                                   C                  -
 -                     87                                   C                  -
 -                     88                                   C                  -
 -                     89                                   C                  -
 -                     90                                   C                  -
 -                     91                                   C                  -
 -                     92                                   C                  -
 -                     93                                   C                  -
 -                     94                                   C                  -
 -                     95                                   C                  -
 -                     96                                   C                  -
 -                     97                                   C                  -
 -                     98                                   C                  -
 -                     99                                   C                  -
 -                    100                                   C                  -
 -                    101                                   C                  -
 -                    102                                   C                  -
 -                    103                                   C                  -
 -                    104                                   C                  -
 -                    105                                   C                  -
 -                    106                                   C                  -
 -                    107                                   C                  -
 -                    108                                   C                  -
 -                    109                                   C                  -
 -                    110                                   C                  -
 -                    111                                   C                  -
 -                    112                                   C                  -
 -                    113                                   C                  -
 -                    114                                   C                  -
 -                    115                                   C                  -
 -                    116                                   C                  -
 -                    117                                   C                  -
 -                    118                                   C                  -
 -                    119                                   C                  -
 -                    120                                   C                  -
 -                    121                                   C                  -
 -                    122                                   C                  -
 -                    123                                   C                  -
 -                    124                                   C                  -
 -                    125                                   C                  -
 -                    126                                   C                  -
 -                    127                                   C                  -
 -                    128                                   C                  -
 -                    129                                   C                  -
 -                    130                                   C                  -
 -                    131                                   C                  -
 -                    132                                   C                  -
 -                    133                                   C                  -
 -                    134                                   C                  -
 -                    135                                   C                  -
 -                    136                                   C                  -
 -                    137                                   C                  -
 -                    138                                   C                  -
 -                    139                                   C                  -
 -                    140                                   C                  -
 -                    141                                   C                  -
 -                    142                                   C                  -
 -                    143                                   C                  -
 -                    144                                   C                  -
 -                    145                                   C                  -
 -                    146                                   C                  -
 -                    147                                   C                  -
 -                    148                                   C                  -
 -                    149                                   C                  -
 -                    150                                   C                  -
 -                    151                                   C                  -
 -                    152                                   C                  -
 -                    153                                   C                  -
 -                    154                                   C                  -
 -                    155                                   C                  -
 -                    156                                   C                  -
 -                    157                                   C                  -
 -                    158                                   C                  -
 -                    159                                   C                  -
 -                    160                                   C                  -
 -                    161                                   C                  -
 -                    162                                   C                  -
 -                    163                                   C                  -
 -                    164                                   C                  -
 -                    165                                   C                  -
 -                    166                                   C                  -
 -                    167                                   C                  -
 -                    168                                   C                  -
 -                    169                                   C                  -
 -                    170                                   C                  -
 -                    171                                   C                  -
 -                    172                                   C                  -
 -                    173                                   C                  -
 -                    174                                   C                  -
 -                    175                                   C                  -
 -                    176                                   C                  -
 -                    177                                   C                  -
 -                    178                                   C                  -
 -                    179                                   C                  -
 -                    180                                   C                  -
 -                    181                                   C                  -
 -                    182                                   C                  -
 -                    183                                   C                  -
 -                    184                                   C                  -
 -                    185                                   C                  -
 -                    186                                   C                  -
 -                    187                                   C                  -
 -                    188                                   C                  -
 -                    189                                   C                  -
 -                    190                                   C                  -
 -                    191                                   C                  -
 -                    192                                   C                  -
 -                    193                                   C                  -
 -                    194                                   C                  -
 -                    195                                   C                  -
 -                    196                                   C                  -
 -                    197                                   C                  -
 -                    198                                   C                  -
 -                    199                                   C                  -
 -                    200                                   C                  -
 -                    201                                   C                  -
 -                    202                                   C                  -
 -                    203                                   C                  -
 -                    204                                   C                  -
 -                    205                                   C                  -
 -                    206                                   C                  -
 -                    207                                   C                  -
 -                    208                                   C                  -
 -                    209                                   C                  -
 -                    210                                   C                  -
 -                    211                                   C                  -
 -                    212                                   C                  -
 -                    213                                   C                  -
 -                    214                                   C                  -
 -                    215                                   C                  -
 -                    216                                   C                  -
 -                    217                                   C                  -
 -                    218                                   C                  -
 -                    219                                   C                  -
 -                    220                                   C                  -
 -                    221                                   C                  -
 -                    222                                   C                  -
 -                    223                                   C                  -
 -                    224                                   C                  -
 -                    225                                   Na_ghost           -
 -------------------------------------------------------------------------------

 *******************************************************************************
 *******************************************************************************
 **                                                                           **
 **     #####                         ##              ##                      **
 **    ##   ##            ##          ##              ##                      **
 **   ##     ##                       ##            ######                    **
 **   ##     ##  ##   ##  ##   #####  ##  ##   ####   ##    #####    #####    **
 **   ##     ##  ##   ##  ##  ##      ## ##   ##      ##   ##   ##  ##   ##   **
 **   ##  ## ##  ##   ##  ##  ##      ####     ###    ##   ######   ######    **
 **    ##  ###   ##   ##  ##  ##      ## ##      ##   ##   ##       ##        **
 **     #######   #####   ##   #####  ##  ##  ####    ##    #####   ##        **
 **           ##                                                    ##        **
 **                                                                           **
 **                                                ... make the atoms dance   **
 **                                                                           **
 **            Copyright (C) by CP2K developers group (2000-2022)             **
 **                      J. Chem. Phys. 152, 194103 (2020)                    **
 **                                                                           **
 *******************************************************************************


 TOTAL NUMBERS AND MAXIMUM NUMBERS

  Total number of            - Atomic kinds:                                   2
                             - Atoms:                                        225
                             - Shell sets:                                   225
                             - Shells:                                      1125
                             - Primitive Cartesian functions:               1127
                             - Cartesian basis functions:                   3145
                             - Spherical basis functions:                   2921

  Maximum angular momentum of- Orbital basis functions:                        2
                             - Local part of the GTH pseudopotential:          2
                             - Non-local part of the GTH pseudopotential:      0


 SCF PARAMETERS         Density guess:                                    ATOMIC
                        --------------------------------------------------------
                        max_scf:                                             100
                        max_scf_history:                                       0
                        max_diis:                                              4
                        --------------------------------------------------------
                        eps_scf:                                        3.00E-07
                        eps_scf_history:                                0.00E+00
                        eps_diis:                                       1.00E-01
                        eps_eigval:                                     1.00E-05
                        --------------------------------------------------------
                        level_shift [a.u.]:                             0.000000
                        added MOs                                       100    0
                        --------------------------------------------------------
                        Mixing method:                            BROYDEN_MIXING
                                                charge density mixing in g-space
                        --------------------------------------------------------
                        Smear method:                                FERMI_DIRAC
                        Electronic temperature [K]:                        300.0
                        Electronic temperature [a.u.]:                  9.50E-04
                        Accuracy threshold:                             1.00E-10
                        --------------------------------------------------------
                        Outer loop SCF in use 
                        No variables optimised in outer loop
                        eps_scf                                         1.00E-06
                        max_scf                                               30
                        DIIS optimization
                        DIIS buffer length                                     3
                        step_size                                       5.00E-01

 Number of electrons:                                                        896
 Number of occupied orbitals:                                                448
 Number of molecular orbitals:                                               548

 Number of orbital functions:                                               2921
 Number of independent orbital functions:                                   2921

 Extrapolation method: initial_guess


 SCF WAVEFUNCTION OPTIMIZATION

  Step     Update method      Time    Convergence         Total energy    Change
  ------------------------------------------------------------------------------
     1 NoMix/Diag. 0.10E+00   19.3     0.92693772     -1266.1114756354 -1.27E+03
     2 Broy./Diag. 0.10E+00   23.0     0.27510789     -1215.5812120690  5.05E+01
     3 Broy./Diag. 0.10E+00   25.4     0.06819595     -1223.1693205992 -7.59E+00
     4 Broy./Diag. 0.10E+00   23.7     0.11325629     -1256.7236711717 -3.36E+01
     5 Broy./Diag. 0.10E+00   24.6     0.07080731     -1270.3302030824 -1.36E+01
     6 Broy./Diag. 0.10E+00   26.3     0.08562891     -1271.3100000713 -9.80E-01
     7 Broy./Diag. 0.10E+00   24.6     0.08839607     -1272.0434790025 -7.33E-01
     8 Broy./Diag. 0.10E+00   24.9     0.01894721     -1272.8883039879 -8.45E-01
     9 Broy./Diag. 0.10E+00   26.7     0.05624087     -1273.2450733367 -3.57E-01
    10 Broy./Diag. 0.10E+00   24.9     0.03661267     -1273.6393224796 -3.94E-01
    11 Broy./Diag. 0.10E+00   26.0     0.00909184     -1273.7986759517 -1.59E-01
    12 Broy./Diag. 0.10E+00   28.0     0.00329951     -1274.0768794181 -2.78E-01
    13 Broy./Diag. 0.10E+00   27.3     0.00143793     -1274.3143421998 -2.37E-01
    14 Broy./Diag. 0.10E+00   28.1     0.00560592     -1274.4046750686 -9.03E-02
    15 Broy./Diag. 0.10E+00   28.3     0.00968153     -1274.5039034078 -9.92E-02
    16 Broy./Diag. 0.10E+00   26.3     0.00508960     -1274.5963782704 -9.25E-02
    17 Broy./Diag. 0.10E+00   26.0     0.00147429     -1274.6353451535 -3.90E-02
    18 Broy./Diag. 0.10E+00   26.0     0.00106630     -1274.6029046706  3.24E-02
    19 Broy./Diag. 0.10E+00   27.0     0.00068013     -1274.6336894161 -3.08E-02
    20 Broy./Diag. 0.10E+00   24.6     0.00090447     -1274.6440515669 -1.04E-02
    21 Broy./Diag. 0.10E+00   26.9     0.00094654     -1274.6477373584 -3.69E-03
    22 Broy./Diag. 0.10E+00   28.1     0.00020975     -1274.6557915224 -8.05E-03
    23 Broy./Diag. 0.10E+00   25.5     0.00050131     -1274.6748569071 -1.91E-02
    24 Broy./Diag. 0.10E+00   26.8     0.00034411     -1274.7089667566 -3.41E-02
    25 Broy./Diag. 0.10E+00   26.1     0.00061228     -1274.7321126999 -2.31E-02
    26 Broy./Diag. 0.10E+00   28.6     0.00076330     -1274.7352027908 -3.09E-03
    27 Broy./Diag. 0.10E+00   27.5     0.00065544     -1274.7305056251  4.70E-03
    28 Broy./Diag. 0.10E+00   27.8     0.00044037     -1274.7274227597  3.08E-03
    29 Broy./Diag. 0.10E+00   26.2     0.00032478     -1274.7263440424  1.08E-03
    30 Broy./Diag. 0.10E+00   26.1     0.00048366     -1274.7284540703 -2.11E-03
    31 Broy./Diag. 0.10E+00   28.1     0.00035832     -1274.7301980283 -1.74E-03
    32 Broy./Diag. 0.10E+00   26.2     0.00023270     -1274.7316419567 -1.44E-03
    33 Broy./Diag. 0.10E+00   25.9     0.00034356     -1274.7348184391 -3.18E-03
    34 Broy./Diag. 0.10E+00   26.7     0.00034320     -1274.7376955059 -2.88E-03
    35 Broy./Diag. 0.10E+00   28.6     0.00019414     -1274.7425600860 -4.86E-03
    36 Broy./Diag. 0.10E+00   27.6     0.00021595     -1274.7490680819 -6.51E-03
    37 Broy./Diag. 0.10E+00   27.0     0.00017870     -1274.7513574510 -2.29E-03
    38 Broy./Diag. 0.10E+00   27.5     0.00016865     -1274.7516226473 -2.65E-04
    39 Broy./Diag. 0.10E+00   28.6     0.00012244     -1274.7507005268  9.22E-04
    40 Broy./Diag. 0.10E+00   29.1     0.00016982     -1274.7492988991  1.40E-03
[...]
  Core density on regular grids:              904.9999999992       -0.0000000008
  Total charge density on r-space grids:       -0.0003223931
  Total charge density g-space grids:          -0.0003223931

  Overlap energy of the core charge distribution:               0.00005425450152
  Self energy of the core charge distribution:              -3088.28434542165087
  Core Hamiltonian energy:                                    970.72365003681034
  Hartree energy:                                            1194.87657730371393
  Exchange-correlation energy:                               -398.77221354623759
  Dispersion energy:                                           -0.49208179045327
  Electronic entropic energy:                                  -0.00767686022072
  Fermi energy:                                                -0.14196256526843

  Total energy:                                             -1321.95603602741835

  outer SCF iter =    1 RMS gradient =   0.23E-06 energy =      -1321.9560360274
  outer SCF loop converged in   1 iterations or   99 steps


 *** WARNING in qs_loc_utils.F:1500 :: User requested the calculation of ***
 *** the localized wavefunction but the section LOCALIZE was not         ***
 *** specified. Localization will not be performed!                      ***


 -------------------------------------------------------------------------------
 -                                                                             -
 -                                 BSSE RESULTS                                -
 -                                                                             -
 -                 CP-corrected Total energy:    -1321.954525                  -
 -                                                                             -
 -                       1-body contribution:    -1274.749998                  -
 -                       1-body contribution:      -47.154809                  -
 -                                                                             -
 -                       2-body contribution:       -0.049718                  -
 -                 BSSE-free interaction energy:       -0.049718               -
 -------------------------------------------------------------------------------

 -------------------------------------------------------------------------------
 -                                                                             -
 -                                DBCSR STATISTICS                             -
 -                                                                             -
 -------------------------------------------------------------------------------
 COUNTER                                    TOTAL       BLAS       SMM       ACC
 flops     9 x     9 x     9                90396     100.0%      0.0%      0.0%
 flops     9 x     9 x    32               559872     100.0%      0.0%      0.0%
 flops     9 x     9 x   132              2052864     100.0%      0.0%      0.0%
 flops     9 x     9 x   137              2197206     100.0%      0.0%      0.0%
 flops     9 x     9 x   160              5054400     100.0%      0.0%      0.0%
 flops     9 x    13 x     9              5079672     100.0%      0.0%      0.0%
 flops    13 x     9 x     9              5231304     100.0%      0.0%      0.0%
 flops     9 x     9 x   128              8087040     100.0%      0.0%      0.0%
 flops     9 x    13 x    32             54183168     100.0%      0.0%      0.0%
 flops    13 x     9 x    32             55800576     100.0%      0.0%      0.0%
 flops     9 x    13 x   132            198671616     100.0%      0.0%      0.0%
 flops    13 x     9 x   132            204602112     100.0%      0.0%      0.0%
 flops     9 x    13 x   137            212640714     100.0%      0.0%      0.0%
 flops    13 x     9 x   137            218988198     100.0%      0.0%      0.0%
 flops     9 x    13 x   160            489153600     100.0%      0.0%      0.0%
 flops    13 x     9 x   160            503755200     100.0%      0.0%      0.0%
 flops     9 x    13 x   128            782645760     100.0%      0.0%      0.0%
 flops    13 x     9 x   128            806008320     100.0%      0.0%      0.0%
 flops    13 x    13 x     9           1581353280     100.0%      0.0%      0.0%
 flops    13 x    13 x    32          16867768320     100.0%      0.0%      0.0%
 flops    13 x    13 x   137          66197205360     100.0%      0.0%      0.0%
 flops    13 x    13 x   132         117254417280     100.0%      0.0%      0.0%
 flops    13 x    13 x   160         219437171200     100.0%      0.0%      0.0%
 flops    13 x    13 x   128         351099473920     100.0%      0.0%      0.0%
 flops inhomo. stacks                           0       0.0%      0.0%      0.0%
 flops total                       775.992191E+09     100.0%      0.0%      0.0%
 flops max/rank                     53.027315E+09     100.0%      0.0%      0.0%
 matmuls inhomo. stacks                         0       0.0%      0.0%      0.0%
 matmuls total                           18436534     100.0%      0.0%      0.0%
 number of processed stacks                 27706     100.0%      0.0%      0.0%
 average stack size                                   665.4       0.0       0.0
 marketing flops                     2.205685E+12
 -------------------------------------------------------------------------------
 # multiplications                            343
 max memory usage/rank               2.047885E+09
 # max total images/rank                        1
 # max 3D layers                                1
 # MPI messages exchanged                   32928
 MPI messages size (bytes):
  total size                        22.169473E+09
  min size                           0.000000E+00
  max size                         943.360000E+03
  average size                     673.271188E+03
 MPI breakdown and total messages size (bytes):
             size <=      128                2340                        0
       128 < size <=     8192                 156                   101088
      8192 < size <=    32768                   0                        0
     32768 < size <=   131072                 864                 45427392
    131072 < size <=  4194304               29568              22123952016
   4194304 < size <= 16777216                   0                        0
  16777216 < size                               0                        0
 -------------------------------------------------------------------------------
 -                                                                             -
 -                      DBCSR MESSAGE PASSING PERFORMANCE                      -
 -                                                                             -
 -------------------------------------------------------------------------------
 ROUTINE             CALLS      AVE VOLUME [Bytes]
 MP_Bcast               25                     12.
 MP_Allreduce         2473                      8.
 MP_Alltoall          9664                 613088.
 MP_ISend             5488                 260340.
 MP_IRecv             5488                 239491.
 -------------------------------------------------------------------------------

 -------------------------------------------------------------------------------
 -                                                                             -
 -                                DBM STATISTICS                               -
 -                                                                             -
 -------------------------------------------------------------------------------
    M  x    N  x    K                                          COUNT     PERCENT
 -------------------------------------------------------------------------------

 -------------------------------------------------------------------------------
 -                                                                             -
 -                                GRID STATISTICS                              -
 -                                                                             -
 -------------------------------------------------------------------------------
 LP    KERNEL             BACKEND                              COUNT     PERCENT
 4     collocate ortho    REF                               37931928      49.92%
 4     integrate ortho    REF                               37459256      49.30%
 3     collocate ortho    REF                                 278460       0.37%
 3     integrate ortho    REF                                 274890       0.36%
 2     collocate ortho    REF                                  12789       0.02%
 2     integrate ortho    REF                                  12593       0.02%
 0     collocate general  REF                                  10800       0.01%
 -------------------------------------------------------------------------------

 MEMORY| Estimated peak process memory [MiB]                                1954

 -------------------------------------------------------------------------------
 -                                                                             -
 -                         MESSAGE PASSING PERFORMANCE                         -
 -                                                                             -
 -------------------------------------------------------------------------------

 ROUTINE             CALLS      AVE VOLUME [Bytes]
 MP_Group               24
 MP_Bcast              811                1005946.
 MP_Allreduce         4450                   1717.
 MP_Sync               393
 MP_Alltoall          4559               63109185.
 MP_SendRecv         14556                 475476.
 MP_ISendRecv        10290                 444928.
 MP_Wait             25547
 MP_comm_split          26
 MP_ISend            11096                3183166.
 MP_IRecv            11096                3183290.
 MP_Recv               250                 732274.
 -------------------------------------------------------------------------------


 -------------------------------------------------------------------------------
 -                                                                             -
 -                           R E F E R E N C E S                               -
 -                                                                             -
 -------------------------------------------------------------------------------
 
 CP2K version 2023.1, the CP2K developers group (2023).
 CP2K is freely available from https://www.cp2k.org/ .

 Kuehne,Thomas D.; Iannuzzi,Marcella; Del Ben,Mauro;
 Rybkin,Vladimir V.; Seewald,Patrick; Stein,Frederick; Laino,Teodoro;
 Khaliullin,Rustam Z.; Schuett,Ole; Schiffmann,Florian; Golze,Dorothea;
 Wilhelm,Jan; Chulkov,Sergey; Bani-Hashemian,Mohammad Hossein;
 Weber,Valery; Borstnik,Urban; Taillefumier,Mathieu;
 Jakobovits,Alice Shoshana; Lazzaro,Alfio; Pabst,Hans; Mueller,Tiziano;
 Schade,Robert; Guidon,Manuel; Andermatt,Samuel; Holmberg,Nico;
 Schenter,Gregory K.; Hehn,Anna; Bussy,Augustin; Belleflamme,Fabian;
 Tabacchi,Gloria; Gloess,Andreas; Lass,Michael; Bethune,Iain;
 Mundy,Christopher J.; Plessl,Christian; Watkins,Matt;
 VandeVondele,Joost; Krack,Matthias; Hutter,Juerg. 
 The Journal of Chemical Physics, 152 (19), (2020). 
 CP2K: An electronic structure and molecular dynamics software package -
 Quickstep: Efficient and accurate electronic structure calculations.
 https://doi.org/10.1063/5.0007045

 Goerigk, Lars; Hansen, Andreas; Bauer, Christoph; Ehrlich, Stephan;
 Najibi, Asim; Grimme, Stefan. , 19 (48), (2017). 
 A look at the density functional theory zoo with the advanced GMTKN55 database
 for general main group thermochemistry, kinetics and noncovalent interactions.
 https://doi.org/10.1039/C7CP04913G

 Schuett, Ole; Messmer, Peter; Hutter, Juerg; VandeVondele, Joost. 
 Electronic Structure Calculations on Graphics Processing Units, John
 Wiley & Sons, Ltd, 173-190 (2016). 
 GPU-Accelerated Sparse Matrix-Matrix Multiplication for
 Linear Scaling Density Functional Theory.
 https://doi.org/10.1002/9781118670712.ch8

 Borstnik, U; VandeVondele, J; Weber, V; Hutter, J. 
 PARALLEL COMPUTING, 40 (5-6), 47-58 (2014). 
 Sparse matrix multiplication: The distributed block-compressed sparse
 row library.
 https://doi.org/10.1016/j.parco.2014.03.012

 Hutter, J; Iannuzzi, M; Schiffmann, F; VandeVondele, J. 
 WIREs Comput Mol Sci., 4 (1), 15-25 (2014). 
 CP2K: atomistic simulations of condensed matter systems.
 https://doi.org/10.1002/wcms.1159

 Marek, A; Blum, V; Johanni, R; Havu, V; Lang, B; Auckenthaler, T;
 Heinecke, A; Bungartz, H; Lederer, H. 
 Journal of Physics: Condensed Matter, 26 (21), (2014). 
 The ELPA library: scalable parallel eigenvalue solutions for
 electronic structure
 theory and computational science.
 https://doi.org/10.1088/0953-8984/26/21/213201

 Grimme, S; Ehrlich, S; Goerigk, L. 
 JOURNAL OF COMPUTATIONAL CHEMISTRY, 32, 1456 (2011). 
 Effect of the damping function in dispersion corrected density functional theory.
 https://doi.org/10.1002/jcc.21759

 Grimme, S; Antony, J; Ehrlich, S; Krieg, H. 
 JOURNAL OF CHEMICAL PHYSICS, 132 (15), 154104 (2010). 
 A consistent and accurate ab initio parametrization of density
 functional dispersion correction (DFT-D) for the 94 elements H-Pu.
 https://doi.org/10.1063/1.3382344

 VandeVondele, J; Hutter, J. 
 JOURNAL OF CHEMICAL PHYSICS, 127 (11), 114105 (2007). 
 Gaussian basis sets for accurate calculations on molecular systems in
 gas and condensed phases.
 https://doi.org/10.1063/1.2770708

 Krack, M. 
 THEORETICAL CHEMISTRY ACCOUNTS, 114 (1-3), 145-152 (2005). 
 Pseudopotentials for H to Kr optimized for gradient-corrected
 exchange-correlation functionals.
 https://doi.org/10.1007/s00214-005-0655-y

 VandeVondele, J; Krack, M; Mohamed, F; Parrinello, M; Chassaing, T;
 Hutter, J. COMPUTER PHYSICS COMMUNICATIONS, 167 (2), 103-128 (2005). 
 QUICKSTEP: Fast and accurate density functional calculations using a
 mixed Gaussian and plane waves approach.
 https://doi.org/10.1016/j.cpc.2004.12.014

 Frigo, M; Johnson, SG. 
 PROCEEDINGS OF THE IEEE, 93 (2), 216-231 (2005). 
 The design and implementation of FFTW3.
 https://doi.org/10.1109/JPROC.2004.840301

 Hartwigsen, C; Goedecker, S; Hutter, J. 
 PHYSICAL REVIEW B, 58 (7), 3641-3662 (1998). 
 Relativistic separable dual-space Gaussian pseudopotentials from H to Rn.
 https://doi.org/10.1103/PhysRevB.58.3641

 Lippert, G; Hutter, J; Parrinello, M. 
 MOLECULAR PHYSICS, 92 (3), 477-487 (1997). 
 A hybrid Gaussian and plane wave density functional scheme.
 https://doi.org/10.1080/002689797170220

 Perdew, JP; Burke, K; Ernzerhof, M. 
 PHYSICAL REVIEW LETTERS, 77 (18), 3865-3868 (1996). 
 Generalized gradient approximation made simple.
 https://doi.org/10.1103/PhysRevLett.77.3865

 Goedecker, S; Teter, M; Hutter, J. 
 PHYSICAL REVIEW B, 54 (3), 1703-1710 (1996). 
 Separable dual-space Gaussian pseudopotentials.
 https://doi.org/10.1103/PhysRevB.54.1703


 -------------------------------------------------------------------------------
 -                                                                             -
 -                                T I M I N G                                  -
 -                                                                             -
 -------------------------------------------------------------------------------
 SUBROUTINE                       CALLS  ASD         SELF TIME        TOTAL TIME
                                MAXIMUM       AVERAGE  MAXIMUM  AVERAGE  MAXIMUM
 CP2K                                 1  1.0    0.218    0.272 8093.388 8093.390
 qs_energies                          5  2.0    0.001    0.001 8082.851 8083.262
 scf_env_do_scf                       5  3.0    0.001    0.002 8045.976 8046.396
 scf_env_do_scf_inner_loop          343  4.0    0.026    0.052 8045.975 8046.394
 qs_scf_new_mos                     343  5.0    0.011    0.027 3612.216 3614.367
 eigensolver                        343  6.0    0.049    0.083 3527.442 3528.683
 cp_fm_diag_elpa                    317  7.0    0.005    0.021 2178.580 2179.380
 cp_fm_diag_elpa_base               317  8.0 2169.979 2172.652 2176.763 2176.957
 qs_ks_update_qs_env                343  5.0    0.006    0.022 2100.001 2100.799
 rebuild_ks_matrix                  343  6.0    0.003    0.004 2095.410 2096.186
 qs_ks_build_kohn_sham_matrix       343  7.0    0.105    0.134 2095.406 2096.183
 qs_rho_update_rho_low              348  5.0    0.004    0.005 1546.051 1546.382
 calculate_rho_elec                 348  6.0    4.330    4.632 1546.048 1546.378
 density_rs2pw                      348  7.0    0.049    0.071 1231.023 1395.671
 cp_fm_triangular_multiply         1029  7.0 1343.591 1346.818 1343.591 1346.818
 sum_up_and_integrate               343  8.0   15.171   15.974 1326.261 1327.150
 integrate_v_rspace                 343  9.0    0.030    0.054 1311.088 1312.297
 pw_transfer                       4484  8.9    0.842    0.925 1128.091 1144.151
 fft_wrap_pw1pw2                   3798  9.9    0.100    0.135 1102.949 1118.360
 rs_pw_transfer                    2769  9.5    0.101    0.127  858.967 1023.172
 fft_wrap_pw1pw2_150               1725 10.2   78.214   82.106  974.302  994.315
 mp_waitany                       11096 11.5  739.852  905.227  739.852  905.227
 rs_pw_transfer_RS2PW_150           353  9.0   16.614   19.453  575.380  887.646
 mp_alltoall_d11v                  4837  9.3  714.121  878.631  714.121  878.631
 grid_collocate_task_list           348  7.0  279.822  860.925  279.822  860.925
 rs_gather_matrices                 343 10.0    0.620    0.744  696.078  860.199
 grid_integrate_task_list           343 10.0  251.150  845.407  251.150  845.407
 fft3d_ps                          3798 11.9  383.041  399.640  820.834  843.233
 gspace_mixing                      338  5.0    4.215    4.504  796.321  796.429
 rs_pw_transfer_RS2PW_50            348  9.0    4.846    5.538  164.103  605.803
 broyden_mixing                     338  6.0  505.455  524.111  574.231  577.826
 qs_vxc_create                      343  8.0    0.015    0.018  471.402  484.909
 xc_vxc_pw_create                   343  9.0   10.492   11.968  471.387  484.895
 potential_pw2rs                    343 10.0    0.416    0.488  363.830  365.313
 xc_rho_set_and_dset_create         343 10.0   14.585   15.308  294.530  323.525
 x_to_yz                           2058 13.2  127.924  137.786  260.530  274.216
 mp_alltoall_z22v                  3798 13.9  236.054  258.430  236.054  258.430
 xc_pw_derive                      2058 11.0    0.018    0.033  207.595  253.038
 pw_nn_compose_r                   2058 12.0   69.445   72.888  207.576  253.021
 xc_functional_eval                 343 11.0    0.010    0.012  190.722  217.801
 pbe_lda_eval                       343 12.0  190.712  217.792  190.712  217.792
 yz_to_x                           1740 12.6   73.617   75.547  177.065  190.675
 mp_sendrecv_dm2                   4116 13.0  138.131  185.346  138.131  185.346
 xc_pw_divergence                   343 10.0    0.010    0.011  141.031  175.406
 -------------------------------------------------------------------------------

 The number of warnings for this run is : 6
 
 -------------------------------------------------------------------------------
  **** **** ******  **  PROGRAM ENDED AT                 2025-04-16 15:58:08.575
 ***** ** ***  *** **   PROGRAM RAN ON                                sebnode124
 **    ****   ******    PROGRAM RAN BY                                    luehrs
 ***** **    ** ** **   PROGRAM PROCESS ID                               1295466
  **** **  *******  **  PROGRAM STOPPED IN /home/luehrs/PhD/Sodium_batteries/Sod
                                           ium-graphene-curvature/Curved_surface
                                           _convex/Zig-Zag1
