 DBCSR| CPU Multiplication driver                                           BLAS (U)
 DBCSR| Multrec recursion limit                                              512 (U)
 DBCSR| Multiplication stack size                                           1000 (D)
 DBCSR| Maximum elements for images                                    UNLIMITED (U)
 DBCSR| Multiplicative factor virtual images                                   1 (U)
 DBCSR| Use multiplication densification                                       T (D)
 DBCSR| Multiplication size stacks                                             3 (U)
 DBCSR| Use memory pool for CPU allocation                                     F (U)
 DBCSR| Number of 3D layers                                               SINGLE (U)
 DBCSR| Use MPI memory allocation                                              F (U)
 DBCSR| Use RMA algorithm                                                      F (U)
 DBCSR| Use Communication thread                                               T (U)
 DBCSR| Communication thread load                                             87 (D)
 DBCSR| MPI: My process id                                                     0
 DBCSR| MPI: Number of processes                                              16
 DBCSR| OMP: Current number of threads                                         1
 DBCSR| OMP: Max number of threads                                             1
 DBCSR| Split modifier for TAS multiplication algorithm                  1.0E+00 (U)


  **** **** ******  **  PROGRAM STARTED AT               2025-02-27 16:18:20.459
 ***** ** ***  *** **   PROGRAM STARTED ON                            sebnode127
 **    ****   ******    PROGRAM STARTED BY                                luehrs
 ***** **    ** ** **   PROGRAM PROCESS ID                                953126
  **** **  *******  **  PROGRAM STARTED IN /home/luehrs/PhD/Sodium_batteries/Sod
                                           ium-graphene-curvature/Curved_surface
                                           /Zig-Zag1

 CP2K| version string:                                       CP2K version 2023.1
 CP2K| source code revision number:                                  git:b888bd8
 CP2K| cp2kflags: omp libint fftw3 libxc elpa parallel scalapack spglib         
 CP2K| is freely available from                            https://www.cp2k.org/
 CP2K| Program compiled at                          Tue Jan 10 19:52:03 UTC 2023
 CP2K| Program compiled on                                            x86-ubc-01
 CP2K| Program compiled for                                Linux-x86_64-gfortran
 CP2K| Data directory path                                       /usr/share/cp2k
 CP2K| Input file name                                            input.BSSE.inp

 GLOBAL| Force Environment number                                              1
 GLOBAL| Basis set file name                                      ./BASIS_MOLOPT
 GLOBAL| Potential file name                                    ./GTH_POTENTIALS
 GLOBAL| MM Potential file name                                     MM_POTENTIAL
 GLOBAL| Coordinate file name                           coords_sur_1_relaxed.xyz
 GLOBAL| Method name                                                        CP2K
 GLOBAL| Project name                                            curv_sur_1_BSSE
 GLOBAL| Run type                                                           BSSE
 GLOBAL| FFT library                                                       FFTW3
 GLOBAL| Diagonalization library                                            ELPA
 GLOBAL| DGEMM library                                                      BLAS
 GLOBAL| Minimum number of eigenvectors for ELPA usage                        16
 GLOBAL| Orthonormality check for eigenvectors                          DISABLED
 GLOBAL| Matrix multiplication library                                 ScaLAPACK
 GLOBAL| All-to-all communication in single precision                          F
 GLOBAL| FFTs using library dependent lengths                                  F
 GLOBAL| Grid backend                                                       AUTO
 GLOBAL| Global print level                                                  LOW
 GLOBAL| MPI I/O enabled                                                       T
 GLOBAL| Total number of message passing processes                            16
 GLOBAL| Number of threads for this process                                    1
 GLOBAL| This output is from process                                           0
 GLOBAL| Stack size for threads created by OpenMP (OMP_STACKSIZE)        default
 GLOBAL| CPU model name                          AMD EPYC 7502 32-Core Processor

 MEMORY| system memory details [Kb]
 MEMORY|                        rank 0           min           max       average
 MEMORY| MemTotal            131834288     131834288     131834288     131834288
 MEMORY| MemFree              90628856      90628856      90628856      90628856
 MEMORY| Buffers                424984        424984        424984        424984
 MEMORY| Cached               26121272      26121272      26121272      26121272
 MEMORY| Slab                  1692852       1692852       1692852       1692852
 MEMORY| SReclaimable          1079308       1079308       1079308       1079308
 MEMORY| MemLikelyFree       118254420     118254420     118254420     118254420


 GENERATE|  Preliminary Number of Bonds generated:                             0
 GENERATE|  Achieved consistency in connectivity generation.

 *******************************************************************************
 *******************************************************************************
 **                                                                           **
 **     #####                         ##              ##                      **
 **    ##   ##            ##          ##              ##                      **
 **   ##     ##                       ##            ######                    **
 **   ##     ##  ##   ##  ##   #####  ##  ##   ####   ##    #####    #####    **
 **   ##     ##  ##   ##  ##  ##      ## ##   ##      ##   ##   ##  ##   ##   **
 **   ##  ## ##  ##   ##  ##  ##      ####     ###    ##   ######   ######    **
 **    ##  ###   ##   ##  ##  ##      ## ##      ##   ##   ##       ##        **
 **     #######   #####   ##   #####  ##  ##  ####    ##    #####   ##        **
 **           ##                                                    ##        **
 **                                                                           **
 **                                                ... make the atoms dance   **
 **                                                                           **
 **            Copyright (C) by CP2K developers group (2000-2022)             **
 **                      J. Chem. Phys. 152, 194103 (2020)                    **
 **                                                                           **
 *******************************************************************************


 TOTAL NUMBERS AND MAXIMUM NUMBERS

  Total number of            - Atomic kinds:                                   2
                             - Atoms:                                        225
                             - Shell sets:                                   225
                             - Shells:                                      1125
                             - Primitive Cartesian functions:               1127
                             - Cartesian basis functions:                   3145
                             - Spherical basis functions:                   2921

  Maximum angular momentum of- Orbital basis functions:                        2
                             - Local part of the GTH pseudopotential:          2
                             - Non-local part of the GTH pseudopotential:      1


 SCF PARAMETERS         Density guess:                                    ATOMIC
                        --------------------------------------------------------
                        max_scf:                                             300
                        max_scf_history:                                       0
                        max_diis:                                              4
                        --------------------------------------------------------
                        eps_scf:                                        3.00E-07
                        eps_scf_history:                                0.00E+00
                        eps_diis:                                       1.00E-01
                        eps_eigval:                                     1.00E-05
                        --------------------------------------------------------
                        level_shift [a.u.]:                             0.000000
                        added MOs                                       100    0
                        --------------------------------------------------------
                        Mixing method:                            BROYDEN_MIXING
                                                charge density mixing in g-space
                        --------------------------------------------------------
                        Smear method:                                FERMI_DIRAC
                        Electronic temperature [K]:                        300.0
                        Electronic temperature [a.u.]:                  9.50E-04
                        Accuracy threshold:                             1.00E-10
                        --------------------------------------------------------
                        Outer loop SCF in use 
                        No variables optimised in outer loop
                        eps_scf                                         1.00E-06
                        max_scf                                              300
                        DIIS optimization
                        DIIS buffer length                                     3
                        step_size                                       5.00E-01

 -------------------------------------------------------------------------------
 -                                                                             -
 -  BSSE CALCULATION         FRAGMENT CONF: 10        FRAGMENT SUBCONF: 10     -
 -                           CHARGE =     0           MULTIPLICITY =     0     -
 -                                                                             -
 -                 ATOM INDEX                              ATOM NAME           -
 -                 ----------                              ---------           -
 -                      1                                   C                  -
 -                      2                                   C                  -
 -                      3                                   C                  -
 -                      4                                   C                  -
 -                      5                                   C                  -
 -                      6                                   C                  -
 -                      7                                   C                  -
 -                      8                                   C                  -
 -                      9                                   C                  -
 -                     10                                   C                  -
 -                     11                                   C                  -
 -                     12                                   C                  -
 -                     13                                   C                  -
 -                     14                                   C                  -
 -                     15                                   C                  -
 -                     16                                   C                  -
 -                     17                                   C                  -
 -                     18                                   C                  -
 -                     19                                   C                  -
 -                     20                                   C                  -
 -                     21                                   C                  -
 -                     22                                   C                  -
 -                     23                                   C                  -
 -                     24                                   C                  -
 -                     25                                   C                  -
 -                     26                                   C                  -
 -                     27                                   C                  -
 -                     28                                   C                  -
 -                     29                                   C                  -
 -                     30                                   C                  -
 -                     31                                   C                  -
 -                     32                                   C                  -
 -                     33                                   C                  -
 -                     34                                   C                  -
 -                     35                                   C                  -
 -                     36                                   C                  -
 -                     37                                   C                  -
 -                     38                                   C                  -
 -                     39                                   C                  -
 -                     40                                   C                  -
 -                     41                                   C                  -
 -                     42                                   C                  -
 -                     43                                   C                  -
 -                     44                                   C                  -
 -                     45                                   C                  -
 -                     46                                   C                  -
 -                     47                                   C                  -
 -                     48                                   C                  -
 -                     49                                   C                  -
 -                     50                                   C                  -
 -                     51                                   C                  -
 -                     52                                   C                  -
 -                     53                                   C                  -
 -                     54                                   C                  -
 -                     55                                   C                  -
 -                     56                                   C                  -
 -                     57                                   C                  -
 -                     58                                   C                  -
 -                     59                                   C                  -
 -                     60                                   C                  -
 -                     61                                   C                  -
 -                     62                                   C                  -
 -                     63                                   C                  -
 -                     64                                   C                  -
 -                     65                                   C                  -
 -                     66                                   C                  -
 -                     67                                   C                  -
 -                     68                                   C                  -
 -                     69                                   C                  -
 -                     70                                   C                  -
 -                     71                                   C                  -
 -                     72                                   C                  -
 -                     73                                   C                  -
 -                     74                                   C                  -
 -                     75                                   C                  -
 -                     76                                   C                  -
 -                     77                                   C                  -
 -                     78                                   C                  -
 -                     79                                   C                  -
 -                     80                                   C                  -
 -                     81                                   C                  -
 -                     82                                   C                  -
 -                     83                                   C                  -
 -                     84                                   C                  -
 -                     85                                   C                  -
 -                     86                                   C                  -
 -                     87                                   C                  -
 -                     88                                   C                  -
 -                     89                                   C                  -
 -                     90                                   C                  -
 -                     91                                   C                  -
 -                     92                                   C                  -
 -                     93                                   C                  -
 -                     94                                   C                  -
 -                     95                                   C                  -
 -                     96                                   C                  -
 -                     97                                   C                  -
 -                     98                                   C                  -
 -                     99                                   C                  -
 -                    100                                   C                  -
 -                    101                                   C                  -
 -                    102                                   C                  -
 -                    103                                   C                  -
 -                    104                                   C                  -
 -                    105                                   C                  -
 -                    106                                   C                  -
 -                    107                                   C                  -
 -                    108                                   C                  -
 -                    109                                   C                  -
 -                    110                                   C                  -
 -                    111                                   C                  -
 -                    112                                   C                  -
 -                    113                                   C                  -
 -                    114                                   C                  -
 -                    115                                   C                  -
 -                    116                                   C                  -
 -                    117                                   C                  -
 -                    118                                   C                  -
 -                    119                                   C                  -
 -                    120                                   C                  -
 -                    121                                   C                  -
 -                    122                                   C                  -
 -                    123                                   C                  -
 -                    124                                   C                  -
 -                    125                                   C                  -
 -                    126                                   C                  -
 -                    127                                   C                  -
 -                    128                                   C                  -
 -                    129                                   C                  -
 -                    130                                   C                  -
 -                    131                                   C                  -
 -                    132                                   C                  -
 -                    133                                   C                  -
 -                    134                                   C                  -
 -                    135                                   C                  -
 -                    136                                   C                  -
 -                    137                                   C                  -
 -                    138                                   C                  -
 -                    139                                   C                  -
 -                    140                                   C                  -
 -                    141                                   C                  -
 -                    142                                   C                  -
 -                    143                                   C                  -
 -                    144                                   C                  -
 -                    145                                   C                  -
 -                    146                                   C                  -
 -                    147                                   C                  -
 -                    148                                   C                  -
 -                    149                                   C                  -
 -                    150                                   C                  -
 -                    151                                   C                  -
 -                    152                                   C                  -
 -                    153                                   C                  -
 -                    154                                   C                  -
 -                    155                                   C                  -
 -                    156                                   C                  -
 -                    157                                   C                  -
 -                    158                                   C                  -
 -                    159                                   C                  -
 -                    160                                   C                  -
 -                    161                                   C                  -
 -                    162                                   C                  -
 -                    163                                   C                  -
 -                    164                                   C                  -
 -                    165                                   C                  -
 -                    166                                   C                  -
 -                    167                                   C                  -
 -                    168                                   C                  -
 -                    169                                   C                  -
 -                    170                                   C                  -
 -                    171                                   C                  -
 -                    172                                   C                  -
 -                    173                                   C                  -
 -                    174                                   C                  -
 -                    175                                   C                  -
 -                    176                                   C                  -
 -                    177                                   C                  -
 -                    178                                   C                  -
 -                    179                                   C                  -
 -                    180                                   C                  -
 -                    181                                   C                  -
 -                    182                                   C                  -
 -                    183                                   C                  -
 -                    184                                   C                  -
 -                    185                                   C                  -
 -                    186                                   C                  -
 -                    187                                   C                  -
 -                    188                                   C                  -
 -                    189                                   C                  -
 -                    190                                   C                  -
 -                    191                                   C                  -
 -                    192                                   C                  -
 -                    193                                   C                  -
 -                    194                                   C                  -
 -                    195                                   C                  -
 -                    196                                   C                  -
 -                    197                                   C                  -
 -                    198                                   C                  -
 -                    199                                   C                  -
 -                    200                                   C                  -
 -                    201                                   C                  -
 -                    202                                   C                  -
 -                    203                                   C                  -
 -                    204                                   C                  -
 -                    205                                   C                  -
 -                    206                                   C                  -
 -                    207                                   C                  -
 -                    208                                   C                  -
 -                    209                                   C                  -
 -                    210                                   C                  -
 -                    211                                   C                  -
 -                    212                                   C                  -
 -                    213                                   C                  -
 -                    214                                   C                  -
 -                    215                                   C                  -
 -                    216                                   C                  -
 -                    217                                   C                  -
 -                    218                                   C                  -
 -                    219                                   C                  -
 -                    220                                   C                  -
 -                    221                                   C                  -
 -                    222                                   C                  -
 -                    223                                   C                  -
 -                    224                                   C                  -
 -------------------------------------------------------------------------------

 *******************************************************************************
 *******************************************************************************
 **                                                                           **
 **     #####                         ##              ##                      **
 **    ##   ##            ##          ##              ##                      **
 **   ##     ##                       ##            ######                    **
 **   ##     ##  ##   ##  ##   #####  ##  ##   ####   ##    #####    #####    **
 **   ##     ##  ##   ##  ##  ##      ## ##   ##      ##   ##   ##  ##   ##   **
 **   ##  ## ##  ##   ##  ##  ##      ####     ###    ##   ######   ######    **
 **    ##  ###   ##   ##  ##  ##      ## ##      ##   ##   ##       ##        **
 **     #######   #####   ##   #####  ##  ##  ####    ##    #####   ##        **
 **           ##                                                    ##        **
 **                                                                           **
 **                                                ... make the atoms dance   **
 **                                                                           **
 **            Copyright (C) by CP2K developers group (2000-2022)             **
 **                      J. Chem. Phys. 152, 194103 (2020)                    **
 **                                                                           **
 *******************************************************************************


 TOTAL NUMBERS AND MAXIMUM NUMBERS

  Total number of            - Atomic kinds:                                   1
                             - Atoms:                                        224
                             - Shell sets:                                   224
                             - Shells:                                      1120
                             - Primitive Cartesian functions:               1120
                             - Cartesian basis functions:                   3136
                             - Spherical basis functions:                   2912

  Maximum angular momentum of- Orbital basis functions:                        2
                             - Local part of the GTH pseudopotential:          2
                             - Non-local part of the GTH pseudopotential:      0


 SCF PARAMETERS         Density guess:                                    ATOMIC
                        --------------------------------------------------------
                        max_scf:                                             300
                        max_scf_history:                                       0
                        max_diis:                                              4
                        --------------------------------------------------------
                        eps_scf:                                        3.00E-07
                        eps_scf_history:                                0.00E+00
                        eps_diis:                                       1.00E-01
                        eps_eigval:                                     1.00E-05
                        --------------------------------------------------------
                        level_shift [a.u.]:                             0.000000
                        added MOs                                       100    0
                        --------------------------------------------------------
                        Mixing method:                            BROYDEN_MIXING
                                                charge density mixing in g-space
                        --------------------------------------------------------
                        Smear method:                                FERMI_DIRAC
                        Electronic temperature [K]:                        300.0
                        Electronic temperature [a.u.]:                  9.50E-04
                        Accuracy threshold:                             1.00E-10
                        --------------------------------------------------------
                        Outer loop SCF in use 
                        No variables optimised in outer loop
                        eps_scf                                         1.00E-06
                        max_scf                                              300
                        DIIS optimization
                        DIIS buffer length                                     3
                        step_size                                       5.00E-01

 Number of electrons:                                                        896
 Number of occupied orbitals:                                                448
 Number of molecular orbitals:                                               548

 Number of orbital functions:                                               2912
 Number of independent orbital functions:                                   2912

 Extrapolation method: initial_guess


 SCF WAVEFUNCTION OPTIMIZATION

  Step     Update method      Time    Convergence         Total energy    Change
  ------------------------------------------------------------------------------
     1 NoMix/Diag. 0.10E+00    7.6     0.92855114     -1265.9121593170 -1.27E+03
     2 Broy./Diag. 0.10E+00   11.3     0.26359742     -1214.9946253192  5.09E+01
     3 Broy./Diag. 0.10E+00   11.7     0.05096028     -1222.9896793010 -8.00E+00
     4 Broy./Diag. 0.10E+00   11.8     0.14876035     -1255.9815089556 -3.30E+01
     5 Broy./Diag. 0.10E+00   11.8     0.12768495     -1269.1463072012 -1.32E+01
     6 Broy./Diag. 0.10E+00   12.0     0.08359928     -1270.0244906654 -8.78E-01
     7 Broy./Diag. 0.10E+00   12.2     0.03847276     -1270.7394853252 -7.15E-01
     8 Broy./Diag. 0.10E+00   12.5     0.01198564     -1271.6819603260 -9.42E-01
     9 Broy./Diag. 0.10E+00   12.9     0.00957597     -1272.1601729733 -4.78E-01
    10 Broy./Diag. 0.10E+00   13.3     0.01314543     -1272.5780135346 -4.18E-01
    11 Broy./Diag. 0.10E+00   13.3     0.00493302     -1272.7193181844 -1.41E-01
    12 Broy./Diag. 0.10E+00   19.4     0.00268577     -1273.0271956956 -3.08E-01
    13 Broy./Diag. 0.10E+00   19.9     0.00263463     -1273.2837986134 -2.57E-01
    14 Broy./Diag. 0.10E+00   20.4     0.00419732     -1273.4127999922 -1.29E-01
    15 Broy./Diag. 0.10E+00   54.6     0.00080185     -1273.4914809819 -7.87E-02
    16 Broy./Diag. 0.10E+00  156.3     0.00112930     -1273.4707109507  2.08E-02
    17 Broy./Diag. 0.10E+00  172.2     0.00233761     -1273.4555839786  1.51E-02
    18 Broy./Diag. 0.10E+00  171.6     0.00194279     -1273.5099943536 -5.44E-02
    19 Broy./Diag. 0.10E+00  177.1     0.00209133     -1273.5338882392 -2.39E-02
    20 Broy./Diag. 0.10E+00  183.0     0.00134366     -1273.5544980328 -2.06E-02
    21 Broy./Diag. 0.10E+00  177.7     0.00047129     -1273.5869961959 -3.25E-02
    22 Broy./Diag. 0.10E+00  153.8     0.00019771     -1273.6195103200 -3.25E-02
    23 Broy./Diag. 0.10E+00  169.8     0.00014060     -1273.6458137838 -2.63E-02
    24 Broy./Diag. 0.10E+00  162.6     0.00033124     -1273.6471084954 -1.29E-03
    25 Broy./Diag. 0.10E+00  155.1     0.00019573     -1273.6427937975  4.31E-03
    26 Broy./Diag. 0.10E+00  147.9     0.00020272     -1273.6368986807  5.90E-03
    27 Broy./Diag. 0.10E+00  200.3     0.00028741     -1273.6284236983  8.47E-03
    28 Broy./Diag. 0.10E+00  161.6     0.00033089     -1273.6272934629  1.13E-03
    29 Broy./Diag. 0.10E+00  188.6     0.00055854     -1273.6366635973 -9.37E-03
    30 Broy./Diag. 0.10E+00  165.7     0.00048188     -1273.6435977444 -6.93E-03
    31 Broy./Diag. 0.10E+00  175.0     0.00015325     -1273.6463051775 -2.71E-03
    32 Broy./Diag. 0.10E+00  179.5     0.00017303     -1273.6449244047  1.38E-03
    33 Broy./Diag. 0.10E+00  177.5     0.00014330     -1273.6435634387  1.36E-03
    34 Broy./Diag. 0.10E+00  172.9     0.00009674     -1273.6415868684  1.98E-03
    35 Broy./Diag. 0.10E+00  174.1     0.00014743     -1273.6439586183 -2.37E-03
    36 Broy./Diag. 0.10E+00  161.9     0.00020370     -1273.6459831582 -2.02E-03
    37 Broy./Diag. 0.10E+00  154.6     0.00009722     -1273.6488357099 -2.85E-03
    38 Broy./Diag. 0.10E+00  164.0     0.00002377     -1273.6511731862 -2.34E-03
    39 Broy./Diag. 0.10E+00  157.0     0.00009044     -1273.6525682280 -1.40E-03
    40 Broy./Diag. 0.10E+00  154.5     0.00010735     -1273.6544350585 -1.87E-03
    41 Broy./Diag. 0.10E+00  179.0     0.00004590     -1273.6554015567 -9.66E-04
    42 Broy./Diag. 0.10E+00  172.5     0.00005335     -1273.6569120628 -1.51E-03
    43 Broy./Diag. 0.10E+00  172.9     0.00004781     -1273.6583973213 -1.49E-03
    44 Broy./Diag. 0.10E+00  182.5     0.00001419     -1273.6588563239 -4.59E-04
    45 Broy./Diag. 0.10E+00  153.6     0.00001349     -1273.6587209794  1.35E-04
    46 Broy./Diag. 0.10E+00  179.7     0.00004057     -1273.6581500713  5.71E-04
    47 Broy./Diag. 0.10E+00  182.7     0.00003752     -1273.6573857175  7.64E-04
    48 Broy./Diag. 0.10E+00  176.6     0.00001692     -1273.6568065292  5.79E-04
    49 Broy./Diag. 0.10E+00  197.1     0.00001059     -1273.6565780075  2.29E-04
    50 Broy./Diag. 0.10E+00  194.2     0.00001318     -1273.6564513041  1.27E-04
    51 Broy./Diag. 0.10E+00  194.1     0.00001933     -1273.6563118595  1.39E-04
    52 Broy./Diag. 0.10E+00  187.6     0.00001586     -1273.6563322507 -2.04E-05
    53 Broy./Diag. 0.10E+00  195.2     0.00001590     -1273.6564232868 -9.10E-05
    54 Broy./Diag. 0.10E+00  196.7     0.00001031     -1273.6567227652 -2.99E-04
    55 Broy./Diag. 0.10E+00  186.0     0.00000458     -1273.6570550338 -3.32E-04
    56 Broy./Diag. 0.10E+00  201.8     0.00000833     -1273.6573083452 -2.53E-04
    57 Broy./Diag. 0.10E+00  196.2     0.00000873     -1273.6575237164 -2.15E-04
    58 Broy./Diag. 0.10E+00  166.3     0.00000484     -1273.6576601005 -1.36E-04
    59 Broy./Diag. 0.10E+00  182.7     0.00000201     -1273.6576960670 -3.60E-05
    60 Broy./Diag. 0.10E+00  178.3     0.00000407     -1273.6576918435  4.22E-06
    61 Broy./Diag. 0.10E+00  138.9     0.00000453     -1273.6576470758  4.48E-05
    62 Broy./Diag. 0.10E+00  172.6     0.00000300     -1273.6576183995  2.87E-05
    63 Broy./Diag. 0.10E+00  175.9     0.00000238     -1273.6575978393  2.06E-05
    64 Broy./Diag. 0.10E+00  173.4     0.00000200     -1273.6575509466  4.69E-05
    65 Broy./Diag. 0.10E+00  166.9     0.00000102     -1273.6575146247  3.63E-05
    66 Broy./Diag. 0.10E+00  176.1     0.00000210     -1273.6574806647  3.40E-05
    67 Broy./Diag. 0.10E+00  158.9     0.00000259     -1273.6574566839  2.40E-05
    68 Broy./Diag. 0.10E+00  173.0     0.00000212     -1273.6574611365 -4.45E-06
    69 Broy./Diag. 0.10E+00  155.6     0.00000155     -1273.6575033562 -4.22E-05
    70 Broy./Diag. 0.10E+00  156.3     0.00000156     -1273.6575427982 -3.94E-05
    71 Broy./Diag. 0.10E+00  180.0     0.00000127     -1273.6575676944 -2.49E-05
    72 Broy./Diag. 0.10E+00  163.4     0.00000073     -1273.6575829749 -1.53E-05
    73 Broy./Diag. 0.10E+00  164.2     0.00000085     -1273.6575853230 -2.35E-06
    74 Broy./Diag. 0.10E+00  166.8     0.00000063     -1273.6575947149 -9.39E-06
    75 Broy./Diag. 0.10E+00  160.6     0.00000025     -1273.6575994268 -4.71E-06

  *** SCF run converged in    75 steps ***


  Electronic density on regular grids:       -896.0000000000        0.0000000000
  Core density on regular grids:              895.9999999992       -0.0000000008
  Total charge density on r-space grids:       -0.0000000007
  Total charge density g-space grids:          -0.0000000007

  Overlap energy of the core charge distribution:               0.00005632564276
  Self energy of the core charge distribution:              -2987.04177559540722
  Core Hamiltonian energy:                                    937.74498371287325
  Hartree energy:                                            1167.03334637293665
  Exchange-correlation energy:                               -391.12778182923921
  Dispersion energy:                                           -0.25986067328793
  Electronic entropic energy:                                  -0.00656773959893
  Fermi energy:                                                -0.15103835500878

  Total energy:                                             -1273.65759942676164

  outer SCF iter =    1 RMS gradient =   0.25E-06 energy =      -1273.6575994268
  outer SCF loop converged in   1 iterations or   75 steps


 *** WARNING in qs_loc_utils.F:1500 :: User requested the calculation of ***
 *** the localized wavefunction but the section LOCALIZE was not         ***
 *** specified. Localization will not be performed!                      ***


 -------------------------------------------------------------------------------
 -                                                                             -
 -  BSSE CALCULATION         FRAGMENT CONF: 01        FRAGMENT SUBCONF: 01     -
 -                           CHARGE =     0           MULTIPLICITY =     0     -
 -                                                                             -
 -                 ATOM INDEX                              ATOM NAME           -
 -                 ----------                              ---------           -
 -                    225                                   Na                 -
 -------------------------------------------------------------------------------

 *******************************************************************************
 *******************************************************************************
 **                                                                           **
 **     #####                         ##              ##                      **
 **    ##   ##            ##          ##              ##                      **
 **   ##     ##                       ##            ######                    **
 **   ##     ##  ##   ##  ##   #####  ##  ##   ####   ##    #####    #####    **
 **   ##     ##  ##   ##  ##  ##      ## ##   ##      ##   ##   ##  ##   ##   **
 **   ##  ## ##  ##   ##  ##  ##      ####     ###    ##   ######   ######    **
 **    ##  ###   ##   ##  ##  ##      ## ##      ##   ##   ##       ##        **
 **     #######   #####   ##   #####  ##  ##  ####    ##    #####   ##        **
 **           ##                                                    ##        **
 **                                                                           **
 **                                                ... make the atoms dance   **
 **                                                                           **
 **            Copyright (C) by CP2K developers group (2000-2022)             **
 **                      J. Chem. Phys. 152, 194103 (2020)                    **
 **                                                                           **
 *******************************************************************************

 *** WARNING in qs_environment.F:1486 :: More added MOs requested than     ***
 *** available. The full set of unoccupied MOs will be used. Use           ***
 *** 'ADDED_MOS -1' to always use all available MOs and to get rid of this ***
 *** warning.                                                              ***



 TOTAL NUMBERS AND MAXIMUM NUMBERS

  Total number of            - Atomic kinds:                                   1
                             - Atoms:                                          1
                             - Shell sets:                                     1
                             - Shells:                                         5
                             - Primitive Cartesian functions:                  7
                             - Cartesian basis functions:                      9
                             - Spherical basis functions:                      9

  Maximum angular momentum of- Orbital basis functions:                        1
                             - Local part of the GTH pseudopotential:          2
                             - Non-local part of the GTH pseudopotential:      1


 SCF PARAMETERS         Density guess:                                    ATOMIC
                        --------------------------------------------------------
                        max_scf:                                             300
                        max_scf_history:                                       0
                        max_diis:                                              4
                        --------------------------------------------------------
                        eps_scf:                                        3.00E-07
                        eps_scf_history:                                0.00E+00
                        eps_diis:                                       1.00E-01
                        eps_eigval:                                     1.00E-05
                        --------------------------------------------------------
                        level_shift [a.u.]:                             0.000000
                        added MOs                                         4    0
                        --------------------------------------------------------
                        Mixing method:                            BROYDEN_MIXING
                                                charge density mixing in g-space
                        --------------------------------------------------------
                        Smear method:                                FERMI_DIRAC
                        Electronic temperature [K]:                        300.0
                        Electronic temperature [a.u.]:                  9.50E-04
                        Accuracy threshold:                             1.00E-10
                        --------------------------------------------------------
                        Outer loop SCF in use 
                        No variables optimised in outer loop
                        eps_scf                                         1.00E-06
                        max_scf                                              300
                        DIIS optimization
                        DIIS buffer length                                     3
                        step_size                                       5.00E-01

 Number of electrons:                                                          9
 Number of occupied orbitals:                                                  5
 Number of molecular orbitals:                                                 9

 Number of orbital functions:                                                  9
 Number of independent orbital functions:                                      9

 Extrapolation method: initial_guess


 SCF WAVEFUNCTION OPTIMIZATION

  Step     Update method      Time    Convergence         Total energy    Change
  ------------------------------------------------------------------------------
     1 NoMix/Diag. 0.10E+00    7.8     0.02077866       -47.1632599043 -4.72E+01
     2 Broy./Diag. 0.10E+00   13.1     0.00009672       -47.1203889479  4.29E-02
     3 Broy./Diag. 0.10E+00   11.9     0.00099687       -47.1612598547 -4.09E-02
     4 Broy./Diag. 0.10E+00   13.8     0.00002400       -47.1689285990 -7.67E-03
     5 Broy./Diag. 0.10E+00   13.2     0.00025248       -47.1689653042 -3.67E-05
     6 Broy./Diag. 0.10E+00   13.4     0.00000809       -47.1690891156 -1.24E-04
     7 Broy./Diag. 0.10E+00   15.9     0.00014091       -47.1674076508  1.68E-03
     8 Broy./Diag. 0.10E+00   13.6     0.00001764       -47.1664602852  9.47E-04
     9 Broy./Diag. 0.10E+00   15.5     0.00018660       -47.1658063765  6.54E-04
    10 Broy./Diag. 0.10E+00   14.6     0.00000972       -47.1654204757  3.86E-04
    11 Broy./Diag. 0.10E+00   14.2     0.00009319       -47.1652158745  2.05E-04
    12 Broy./Diag. 0.10E+00   16.0     0.00000301       -47.1651535009  6.24E-05
    13 Broy./Diag. 0.10E+00   12.9     0.00000820       -47.1652499148 -9.64E-05
    14 Broy./Diag. 0.10E+00   15.2     0.00000082       -47.1652670097 -1.71E-05
    15 Broy./Diag. 0.10E+00   14.3     0.00001232       -47.1651055224  1.61E-04
    16 Broy./Diag. 0.10E+00   15.9     0.00000255       -47.1650765646  2.90E-05
    17 Broy./Diag. 0.10E+00   16.2     0.00000272       -47.1651137150 -3.72E-05
    18 Broy./Diag. 0.10E+00   14.9     0.00000204       -47.1651553405 -4.16E-05
    19 Broy./Diag. 0.10E+00   14.6     0.00000145       -47.1651735236 -1.82E-05
    20 Broy./Diag. 0.10E+00   14.2     0.00000263       -47.1651694789  4.04E-06
    21 Broy./Diag. 0.10E+00   14.6     0.00000267       -47.1651484875  2.10E-05
    22 Broy./Diag. 0.10E+00   14.6     0.00000454       -47.1651175312  3.10E-05
    23 Broy./Diag. 0.10E+00   14.2     0.00000312       -47.1650970643  2.05E-05
    24 Broy./Diag. 0.10E+00   14.4     0.00000121       -47.1650949274  2.14E-06
    25 Broy./Diag. 0.10E+00   14.5     0.00000028       -47.1651028529 -7.93E-06

  *** SCF run converged in    25 steps ***


  Electronic density on regular grids:         -9.0003208268       -0.0003208268
  Core density on regular grids:                9.0000000000       -0.0000000000
  Total charge density on r-space grids:       -0.0003208268
  Total charge density g-space grids:          -0.0003208268

  Overlap energy of the core charge distribution:               0.00000000000000
  Self energy of the core charge distribution:                -96.60649019442629
  Core Hamiltonian energy:                                     29.76189512206200
  Hartree energy:                                              26.72515942096469
  Exchange-correlation energy:                                 -7.04434952495853
  Dispersion energy:                                           -0.00000063510881
  Electronic entropic energy:                                  -0.00131704147593
  Fermi energy:                                                -0.09176731492739

  Total energy:                                               -47.16510285294285

  outer SCF iter =    1 RMS gradient =   0.28E-06 energy =        -47.1651028529
  outer SCF loop converged in   1 iterations or   25 steps


 *** WARNING in qs_loc_utils.F:1500 :: User requested the calculation of ***
 *** the localized wavefunction but the section LOCALIZE was not         ***
 *** specified. Localization will not be performed!                      ***


 -------------------------------------------------------------------------------
 -                                                                             -
 -  BSSE CALCULATION         FRAGMENT CONF: 11        FRAGMENT SUBCONF: 10     -
 -                           CHARGE =     0           MULTIPLICITY =     0     -
 -                                                                             -
 -                 ATOM INDEX                              ATOM NAME           -
 -                 ----------                              ---------           -
 -                      1                                   C                  -
 -                      2                                   C                  -
 -                      3                                   C                  -
 -                      4                                   C                  -
 -                      5                                   C                  -
 -                      6                                   C                  -
 -                      7                                   C                  -
 -                      8                                   C                  -
 -                      9                                   C                  -
 -                     10                                   C                  -
 -                     11                                   C                  -
 -                     12                                   C                  -
 -                     13                                   C                  -
 -                     14                                   C                  -
 -                     15                                   C                  -
 -                     16                                   C                  -
 -                     17                                   C                  -
 -                     18                                   C                  -
 -                     19                                   C                  -
 -                     20                                   C                  -
 -                     21                                   C                  -
 -                     22                                   C                  -
 -                     23                                   C                  -
 -                     24                                   C                  -
 -                     25                                   C                  -
 -                     26                                   C                  -
 -                     27                                   C                  -
 -                     28                                   C                  -
 -                     29                                   C                  -
 -                     30                                   C                  -
 -                     31                                   C                  -
 -                     32                                   C                  -
 -                     33                                   C                  -
 -                     34                                   C                  -
 -                     35                                   C                  -
 -                     36                                   C                  -
 -                     37                                   C                  -
 -                     38                                   C                  -
 -                     39                                   C                  -
 -                     40                                   C                  -
 -                     41                                   C                  -
 -                     42                                   C                  -
 -                     43                                   C                  -
 -                     44                                   C                  -
 -                     45                                   C                  -
 -                     46                                   C                  -
 -                     47                                   C                  -
 -                     48                                   C                  -
 -                     49                                   C                  -
 -                     50                                   C                  -
 -                     51                                   C                  -
 -                     52                                   C                  -
 -                     53                                   C                  -
 -                     54                                   C                  -
 -                     55                                   C                  -
 -                     56                                   C                  -
 -                     57                                   C                  -
 -                     58                                   C                  -
 -                     59                                   C                  -
 -                     60                                   C                  -
 -                     61                                   C                  -
 -                     62                                   C                  -
 -                     63                                   C                  -
 -                     64                                   C                  -
 -                     65                                   C                  -
 -                     66                                   C                  -
 -                     67                                   C                  -
 -                     68                                   C                  -
 -                     69                                   C                  -
 -                     70                                   C                  -
 -                     71                                   C                  -
 -                     72                                   C                  -
 -                     73                                   C                  -
 -                     74                                   C                  -
 -                     75                                   C                  -
 -                     76                                   C                  -
 -                     77                                   C                  -
 -                     78                                   C                  -
 -                     79                                   C                  -
 -                     80                                   C                  -
 -                     81                                   C                  -
 -                     82                                   C                  -
 -                     83                                   C                  -
 -                     84                                   C                  -
 -                     85                                   C                  -
 -                     86                                   C                  -
 -                     87                                   C                  -
 -                     88                                   C                  -
 -                     89                                   C                  -
 -                     90                                   C                  -
 -                     91                                   C                  -
 -                     92                                   C                  -
 -                     93                                   C                  -
 -                     94                                   C                  -
 -                     95                                   C                  -
 -                     96                                   C                  -
 -                     97                                   C                  -
 -                     98                                   C                  -
 -                     99                                   C                  -
 -                    100                                   C                  -
 -                    101                                   C                  -
 -                    102                                   C                  -
 -                    103                                   C                  -
 -                    104                                   C                  -
 -                    105                                   C                  -
 -                    106                                   C                  -
 -                    107                                   C                  -
 -                    108                                   C                  -
 -                    109                                   C                  -
 -                    110                                   C                  -
 -                    111                                   C                  -
 -                    112                                   C                  -
 -                    113                                   C                  -
 -                    114                                   C                  -
 -                    115                                   C                  -
 -                    116                                   C                  -
 -                    117                                   C                  -
 -                    118                                   C                  -
 -                    119                                   C                  -
 -                    120                                   C                  -
 -                    121                                   C                  -
 -                    122                                   C                  -
 -                    123                                   C                  -
 -                    124                                   C                  -
 -                    125                                   C                  -
 -                    126                                   C                  -
 -                    127                                   C                  -
 -                    128                                   C                  -
 -                    129                                   C                  -
 -                    130                                   C                  -
 -                    131                                   C                  -
 -                    132                                   C                  -
 -                    133                                   C                  -
 -                    134                                   C                  -
 -                    135                                   C                  -
 -                    136                                   C                  -
 -                    137                                   C                  -
 -                    138                                   C                  -
 -                    139                                   C                  -
 -                    140                                   C                  -
 -                    141                                   C                  -
 -                    142                                   C                  -
 -                    143                                   C                  -
 -                    144                                   C                  -
 -                    145                                   C                  -
 -                    146                                   C                  -
 -                    147                                   C                  -
 -                    148                                   C                  -
 -                    149                                   C                  -
 -                    150                                   C                  -
 -                    151                                   C                  -
 -                    152                                   C                  -
 -                    153                                   C                  -
 -                    154                                   C                  -
 -                    155                                   C                  -
 -                    156                                   C                  -
 -                    157                                   C                  -
 -                    158                                   C                  -
 -                    159                                   C                  -
 -                    160                                   C                  -
 -                    161                                   C                  -
 -                    162                                   C                  -
 -                    163                                   C                  -
 -                    164                                   C                  -
 -                    165                                   C                  -
 -                    166                                   C                  -
 -                    167                                   C                  -
 -                    168                                   C                  -
 -                    169                                   C                  -
 -                    170                                   C                  -
 -                    171                                   C                  -
 -                    172                                   C                  -
 -                    173                                   C                  -
 -                    174                                   C                  -
 -                    175                                   C                  -
 -                    176                                   C                  -
 -                    177                                   C                  -
 -                    178                                   C                  -
 -                    179                                   C                  -
 -                    180                                   C                  -
 -                    181                                   C                  -
 -                    182                                   C                  -
 -                    183                                   C                  -
 -                    184                                   C                  -
 -                    185                                   C                  -
 -                    186                                   C                  -
 -                    187                                   C                  -
 -                    188                                   C                  -
 -                    189                                   C                  -
 -                    190                                   C                  -
 -                    191                                   C                  -
 -                    192                                   C                  -
 -                    193                                   C                  -
 -                    194                                   C                  -
 -                    195                                   C                  -
 -                    196                                   C                  -
 -                    197                                   C                  -
 -                    198                                   C                  -
 -                    199                                   C                  -
 -                    200                                   C                  -
 -                    201                                   C                  -
 -                    202                                   C                  -
 -                    203                                   C                  -
 -                    204                                   C                  -
 -                    205                                   C                  -
 -                    206                                   C                  -
 -                    207                                   C                  -
 -                    208                                   C                  -
 -                    209                                   C                  -
 -                    210                                   C                  -
 -                    211                                   C                  -
 -                    212                                   C                  -
 -                    213                                   C                  -
 -                    214                                   C                  -
 -                    215                                   C                  -
 -                    216                                   C                  -
 -                    217                                   C                  -
 -                    218                                   C                  -
 -                    219                                   C                  -
 -                    220                                   C                  -
 -                    221                                   C                  -
 -                    222                                   C                  -
 -                    223                                   C                  -
 -                    224                                   C                  -
 -                    225                                   Na_ghost           -
 -------------------------------------------------------------------------------

 *******************************************************************************
 *******************************************************************************
 **                                                                           **
 **     #####                         ##              ##                      **
 **    ##   ##            ##          ##              ##                      **
 **   ##     ##                       ##            ######                    **
 **   ##     ##  ##   ##  ##   #####  ##  ##   ####   ##    #####    #####    **
 **   ##     ##  ##   ##  ##  ##      ## ##   ##      ##   ##   ##  ##   ##   **
 **   ##  ## ##  ##   ##  ##  ##      ####     ###    ##   ######   ######    **
 **    ##  ###   ##   ##  ##  ##      ## ##      ##   ##   ##       ##        **
 **     #######   #####   ##   #####  ##  ##  ####    ##    #####   ##        **
 **           ##                                                    ##        **
 **                                                                           **
 **                                                ... make the atoms dance   **
 **                                                                           **
 **            Copyright (C) by CP2K developers group (2000-2022)             **
 **                      J. Chem. Phys. 152, 194103 (2020)                    **
 **                                                                           **
 *******************************************************************************


 TOTAL NUMBERS AND MAXIMUM NUMBERS

  Total number of            - Atomic kinds:                                   2
                             - Atoms:                                        225
                             - Shell sets:                                   225
                             - Shells:                                      1125
                             - Primitive Cartesian functions:               1127
                             - Cartesian basis functions:                   3145
                             - Spherical basis functions:                   2921

  Maximum angular momentum of- Orbital basis functions:                        2
                             - Local part of the GTH pseudopotential:          2
                             - Non-local part of the GTH pseudopotential:      0


 SCF PARAMETERS         Density guess:                                    ATOMIC
                        --------------------------------------------------------
                        max_scf:                                             300
                        max_scf_history:                                       0
                        max_diis:                                              4
                        --------------------------------------------------------
                        eps_scf:                                        3.00E-07
                        eps_scf_history:                                0.00E+00
                        eps_diis:                                       1.00E-01
                        eps_eigval:                                     1.00E-05
                        --------------------------------------------------------
                        level_shift [a.u.]:                             0.000000
                        added MOs                                       100    0
                        --------------------------------------------------------
                        Mixing method:                            BROYDEN_MIXING
                                                charge density mixing in g-space
                        --------------------------------------------------------
                        Smear method:                                FERMI_DIRAC
                        Electronic temperature [K]:                        300.0
                        Electronic temperature [a.u.]:                  9.50E-04
                        Accuracy threshold:                             1.00E-10
                        --------------------------------------------------------
                        Outer loop SCF in use 
                        No variables optimised in outer loop
                        eps_scf                                         1.00E-06
                        max_scf                                              300
                        DIIS optimization
                        DIIS buffer length                                     3
                        step_size                                       5.00E-01

 Number of electrons:                                                        896
 Number of occupied orbitals:                                                448
 Number of molecular orbitals:                                               548

 Number of orbital functions:                                               2921
 Number of independent orbital functions:                                   2921

 Extrapolation method: initial_guess


 SCF WAVEFUNCTION OPTIMIZATION

  Step     Update method      Time    Convergence         Total energy    Change
  ------------------------------------------------------------------------------
     1 NoMix/Diag. 0.10E+00  179.5     0.92855179     -1265.9121593170 -1.27E+03
     2 Broy./Diag. 0.10E+00  172.5     0.26375523     -1214.9877159378  5.09E+01
     3 Broy./Diag. 0.10E+00  176.4     0.05255843     -1222.9771421542 -7.99E+00
     4 Broy./Diag. 0.10E+00  168.6     0.14745955     -1255.9691763177 -3.30E+01
     5 Broy./Diag. 0.10E+00  164.6     0.12609823     -1269.1469570241 -1.32E+01
     6 Broy./Diag. 0.10E+00  178.8     0.08419894     -1270.0267235953 -8.80E-01
     7 Broy./Diag. 0.10E+00  169.9     0.04004499     -1270.7402477638 -7.14E-01
     8 Broy./Diag. 0.10E+00  162.8     0.01103037     -1271.6817816955 -9.42E-01
     9 Broy./Diag. 0.10E+00  179.8     0.01193346     -1272.1588955572 -4.77E-01
    10 Broy./Diag. 0.10E+00  163.8     0.01296352     -1272.5778653536 -4.19E-01
    11 Broy./Diag. 0.10E+00  147.6     0.00525371     -1272.7172065354 -1.39E-01
    12 Broy./Diag. 0.10E+00  147.7     0.00279974     -1273.0073882302 -2.90E-01
    13 Broy./Diag. 0.10E+00  135.0     0.00327816     -1273.2726519702 -2.65E-01
    14 Broy./Diag. 0.10E+00  140.7     0.00476513     -1273.3580543284 -8.54E-02
    15 Broy./Diag. 0.10E+00  138.8     0.00641393     -1273.4052304855 -4.72E-02
    16 Broy./Diag. 0.10E+00  143.8     0.00399876     -1273.4503081082 -4.51E-02
    17 Broy./Diag. 0.10E+00  178.9     0.00117031     -1273.5129635673 -6.27E-02
    18 Broy./Diag. 0.10E+00  205.1     0.00074082     -1273.5660382839 -5.31E-02
    19 Broy./Diag. 0.10E+00  178.3     0.00088363     -1273.5948121708 -2.88E-02
    20 Broy./Diag. 0.10E+00  171.1     0.00035377     -1273.5883205520  6.49E-03
    21 Broy./Diag. 0.10E+00  207.7     0.00070532     -1273.5699934210  1.83E-02
    22 Broy./Diag. 0.10E+00  187.7     0.00078653     -1273.5874295735 -1.74E-02
    23 Broy./Diag. 0.10E+00  175.9     0.00068676     -1273.6102003334 -2.28E-02
    24 Broy./Diag. 0.10E+00  184.1     0.00073849     -1273.6269958551 -1.68E-02
    25 Broy./Diag. 0.10E+00  156.9     0.00130567     -1273.6401900659 -1.32E-02
    26 Broy./Diag. 0.10E+00  170.4     0.00115529     -1273.6423873250 -2.20E-03
    27 Broy./Diag. 0.10E+00  170.1     0.00037263     -1273.6395678083  2.82E-03
    28 Broy./Diag. 0.10E+00  195.4     0.00054329     -1273.6377124045  1.86E-03
    29 Broy./Diag. 0.10E+00  170.1     0.00043176     -1273.6362724526  1.44E-03
    30 Broy./Diag. 0.10E+00  169.5     0.00023232     -1273.6340837728  2.19E-03
    31 Broy./Diag. 0.10E+00  186.2     0.00010572     -1273.6416751606 -7.59E-03
    32 Broy./Diag. 0.10E+00  177.5     0.00014188     -1273.6482039117 -6.53E-03
    33 Broy./Diag. 0.10E+00  193.4     0.00022345     -1273.6561676327 -7.96E-03
    34 Broy./Diag. 0.10E+00  198.9     0.00016581     -1273.6602310492 -4.06E-03
    35 Broy./Diag. 0.10E+00  175.2     0.00017620     -1273.6625516355 -2.32E-03
    36 Broy./Diag. 0.10E+00  193.0     0.00017468     -1273.6629886276 -4.37E-04
    37 Broy./Diag. 0.10E+00  178.4     0.00011257     -1273.6626623977  3.26E-04
    38 Broy./Diag. 0.10E+00  170.0     0.00016182     -1273.6622532996  4.09E-04
    39 Broy./Diag. 0.10E+00  172.3     0.00014309     -1273.6610475113  1.21E-03
    40 Broy./Diag. 0.10E+00  186.6     0.00014764     -1273.6592961510  1.75E-03
    41 Broy./Diag. 0.10E+00  179.0     0.00012417     -1273.6592369466  5.92E-05
    42 Broy./Diag. 0.10E+00  185.4     0.00007366     -1273.6593024274 -6.55E-05
    43 Broy./Diag. 0.10E+00  187.9     0.00007923     -1273.6599726673 -6.70E-04
    44 Broy./Diag. 0.10E+00  187.9     0.00007497     -1273.6607751112 -8.02E-04
    45 Broy./Diag. 0.10E+00  206.5     0.00006071     -1273.6606556417  1.19E-04
    46 Broy./Diag. 0.10E+00  209.5     0.00006587     -1273.6607119414 -5.63E-05
    47 Broy./Diag. 0.10E+00  211.0     0.00007076     -1273.6604585303  2.53E-04
    48 Broy./Diag. 0.10E+00  205.2     0.00005803     -1273.6599155102  5.43E-04
    49 Broy./Diag. 0.10E+00  171.4     0.00003236     -1273.6594851133  4.30E-04
    50 Broy./Diag. 0.10E+00  184.9     0.00002389     -1273.6591157946  3.69E-04
    51 Broy./Diag. 0.10E+00  169.6     0.00002410     -1273.6587066747  4.09E-04
    52 Broy./Diag. 0.10E+00  168.8     0.00001544     -1273.6583990261  3.08E-04
[...]
   100 Broy./Diag. 0.10E+00  205.4     0.00000096     -1320.8697435917 -1.10E-05
   101 Broy./Diag. 0.10E+00  178.4     0.00000076     -1320.8697512999 -7.71E-06
   102 Broy./Diag. 0.10E+00  182.6     0.00000093     -1320.8697568555 -5.56E-06
   103 Broy./Diag. 0.10E+00  197.1     0.00000086     -1320.8697633065 -6.45E-06
   104 Broy./Diag. 0.10E+00  185.8     0.00000081     -1320.8697696577 -6.35E-06
   105 Broy./Diag. 0.10E+00  201.6     0.00000052     -1320.8697729641 -3.31E-06
   106 Broy./Diag. 0.10E+00   87.9     0.00000080     -1320.8697749152 -1.95E-06
   107 Broy./Diag. 0.10E+00   58.3     0.00000066     -1320.8697749346 -1.94E-08
   108 Broy./Diag. 0.10E+00   58.4     0.00000049     -1320.8697730062  1.93E-06
   109 Broy./Diag. 0.10E+00   55.5     0.00000058     -1320.8697694202  3.59E-06
   110 Broy./Diag. 0.10E+00   54.3     0.00000041     -1320.8697665641  2.86E-06
   111 Broy./Diag. 0.10E+00   54.1     0.00000034     -1320.8697647244  1.84E-06
   112 Broy./Diag. 0.10E+00   55.1     0.00000044     -1320.8697628887  1.84E-06
   113 Broy./Diag. 0.10E+00   56.5     0.00000042     -1320.8697608249  2.06E-06
   114 Broy./Diag. 0.10E+00   56.8     0.00000027     -1320.8697596560  1.17E-06

  *** SCF run converged in   114 steps ***


  Electronic density on regular grids:       -905.0003224629       -0.0003224629
  Core density on regular grids:              904.9999999992       -0.0000000008
  Total charge density on r-space grids:       -0.0003224637
  Total charge density g-space grids:          -0.0003224637

  Overlap energy of the core charge distribution:               0.00005632564276
  Self energy of the core charge distribution:              -3083.64826578983366
  Core Hamiltonian energy:                                    967.87767556938581
  Hartree energy:                                            1193.59166579482962
  Exchange-correlation energy:                               -398.41943847873688
  Dispersion energy:                                           -0.26400429572005
  Electronic entropic energy:                                  -0.00744878039786
  Fermi energy:                                                -0.14249709837311

  Total energy:                                             -1320.86975965603483

  outer SCF iter =    1 RMS gradient =   0.27E-06 energy =      -1320.8697596560
  outer SCF loop converged in   1 iterations or  114 steps


 *** WARNING in qs_loc_utils.F:1500 :: User requested the calculation of ***
 *** the localized wavefunction but the section LOCALIZE was not         ***
 *** specified. Localization will not be performed!                      ***


 -------------------------------------------------------------------------------
 -                                                                             -
 -                                 BSSE RESULTS                                -
 -                                                                             -
 -                 CP-corrected Total energy:    -1320.868270                  -
 -                                                                             -
 -                       1-body contribution:    -1273.657599                  -
 -                       1-body contribution:      -47.165103                  -
 -                                                                             -
 -                       2-body contribution:       -0.045568                  -
 -                 BSSE-free interaction energy:       -0.045568               -
 -------------------------------------------------------------------------------

 -------------------------------------------------------------------------------
 -                                                                             -
 -                                DBCSR STATISTICS                             -
 -                                                                             -
 -------------------------------------------------------------------------------
 COUNTER                                    TOTAL       BLAS       SMM       ACC
 flops     9 x     9 x     9                94770     100.0%      0.0%      0.0%
 flops     9 x     9 x    32               622080     100.0%      0.0%      0.0%
 flops     9 x     9 x   132              1988712     100.0%      0.0%      0.0%
 flops     9 x     9 x   137              2530116     100.0%      0.0%      0.0%
 flops     9 x     9 x   160              5365440     100.0%      0.0%      0.0%
 flops     9 x    13 x     9              5644080     100.0%      0.0%      0.0%
 flops    13 x     9 x     9              5812560     100.0%      0.0%      0.0%
 flops     9 x     9 x   128              8584704     100.0%      0.0%      0.0%
 flops     9 x    13 x    32             60203520     100.0%      0.0%      0.0%
 flops    13 x     9 x    32             62000640     100.0%      0.0%      0.0%
 flops     9 x    13 x   132            192463128     100.0%      0.0%      0.0%
 flops    13 x     9 x   132            198208296     100.0%      0.0%      0.0%
 flops     9 x    13 x   137            244859004     100.0%      0.0%      0.0%
 flops    13 x     9 x   137            252168228     100.0%      0.0%      0.0%
 flops     9 x    13 x   160            519255360     100.0%      0.0%      0.0%
 flops    13 x     9 x   160            534755520     100.0%      0.0%      0.0%
 flops     9 x    13 x   128            830808576     100.0%      0.0%      0.0%
 flops    13 x     9 x   128            855608832     100.0%      0.0%      0.0%
 flops    13 x    13 x     9           1757059200     100.0%      0.0%      0.0%
 flops    13 x    13 x    32          18741964800     100.0%      0.0%      0.0%
 flops    13 x    13 x   137          76227084960     100.0%      0.0%      0.0%
 flops    13 x    13 x   132         108234846720     100.0%      0.0%      0.0%
 flops    13 x    13 x   160         220218086400     100.0%      0.0%      0.0%
 flops    13 x    13 x   128         352348938240     100.0%      0.0%      0.0%
 flops inhomo. stacks                           0       0.0%      0.0%      0.0%
 flops total                       781.308954E+09     100.0%      0.0%      0.0%
 flops max/rank                     53.435653E+09     100.0%      0.0%      0.0%
 matmuls inhomo. stacks                         0       0.0%      0.0%      0.0%
 matmuls total                           18734101     100.0%      0.0%      0.0%
 number of processed stacks                 28537     100.0%      0.0%      0.0%
 average stack size                                   656.5       0.0       0.0
 marketing flops                     2.216077E+12
 -------------------------------------------------------------------------------
 # multiplications                            347
 max memory usage/rank               2.024788E+09
 # max total images/rank                        1
 # max 3D layers                                1
 # MPI messages exchanged                   33312
 MPI messages size (bytes):
  total size                        22.318309E+09
  min size                           0.000000E+00
  max size                         943.360000E+03
  average size                     669.978062E+03
 MPI breakdown and total messages size (bytes):
             size <=      128                2250                        0
       128 < size <=     8192                 150                    97200
      8192 < size <=    32768                   0                        0
     32768 < size <=   131072                 960                 50474880
    131072 < size <=  4194304               29952              22267745568
   4194304 < size <= 16777216                   0                        0
  16777216 < size                               0                        0
 -------------------------------------------------------------------------------
 -                                                                             -
 -                      DBCSR MESSAGE PASSING PERFORMANCE                      -
 -                                                                             -
 -------------------------------------------------------------------------------
 ROUTINE             CALLS      AVE VOLUME [Bytes]
 MP_Bcast               25                     12.
 MP_Allreduce         2501                      8.
 MP_Alltoall          9776                 614156.
 MP_ISend             5552                 259194.
 MP_IRecv             5552                 238326.
 -------------------------------------------------------------------------------

 -------------------------------------------------------------------------------
 -                                                                             -
 -                                DBM STATISTICS                               -
 -                                                                             -
 -------------------------------------------------------------------------------
    M  x    N  x    K                                          COUNT     PERCENT
 -------------------------------------------------------------------------------

 -------------------------------------------------------------------------------
 -                                                                             -
 -                                GRID STATISTICS                              -
 -                                                                             -
 -------------------------------------------------------------------------------
 LP    KERNEL             BACKEND                              COUNT     PERCENT
 4     collocate ortho    REF                               38522768      49.90%
 4     integrate ortho    REF                               38050096      49.29%
 3     collocate ortho    REF                                 297500       0.39%
 3     integrate ortho    REF                                 293930       0.38%
 2     collocate ortho    REF                                  13524       0.02%
 2     integrate ortho    REF                                  13328       0.02%
 0     collocate general  REF                                  10800       0.01%
 -------------------------------------------------------------------------------

 MEMORY| Estimated peak process memory [MiB]                                1931

 -------------------------------------------------------------------------------
 -                                                                             -
 -                         MESSAGE PASSING PERFORMANCE                         -
 -                                                                             -
 -------------------------------------------------------------------------------

 ROUTINE             CALLS      AVE VOLUME [Bytes]
 MP_Group               24
 MP_Bcast              847                1143070.
 MP_Allreduce         4491                   1702.
 MP_Sync               396
 MP_Alltoall          4611               63124998.
 MP_SendRecv         14724                 475480.
 MP_ISendRecv        10410                 444928.
 MP_Wait             25843
 MP_comm_split          25
 MP_ISend            11224                3185888.
 MP_IRecv            11224                3186011.
 MP_Recv               250                 732421.
 -------------------------------------------------------------------------------


 -------------------------------------------------------------------------------
 -                                                                             -
 -                           R E F E R E N C E S                               -
 -                                                                             -
 -------------------------------------------------------------------------------
 
 CP2K version 2023.1, the CP2K developers group (2023).
 CP2K is freely available from https://www.cp2k.org/ .

 Kuehne,Thomas D.; Iannuzzi,Marcella; Del Ben,Mauro;
 Rybkin,Vladimir V.; Seewald,Patrick; Stein,Frederick; Laino,Teodoro;
 Khaliullin,Rustam Z.; Schuett,Ole; Schiffmann,Florian; Golze,Dorothea;
 Wilhelm,Jan; Chulkov,Sergey; Bani-Hashemian,Mohammad Hossein;
 Weber,Valery; Borstnik,Urban; Taillefumier,Mathieu;
 Jakobovits,Alice Shoshana; Lazzaro,Alfio; Pabst,Hans; Mueller,Tiziano;
 Schade,Robert; Guidon,Manuel; Andermatt,Samuel; Holmberg,Nico;
 Schenter,Gregory K.; Hehn,Anna; Bussy,Augustin; Belleflamme,Fabian;
 Tabacchi,Gloria; Gloess,Andreas; Lass,Michael; Bethune,Iain;
 Mundy,Christopher J.; Plessl,Christian; Watkins,Matt;
 VandeVondele,Joost; Krack,Matthias; Hutter,Juerg. 
 The Journal of Chemical Physics, 152 (19), (2020). 
 CP2K: An electronic structure and molecular dynamics software package -
 Quickstep: Efficient and accurate electronic structure calculations.
 https://doi.org/10.1063/5.0007045

 Goerigk, Lars; Hansen, Andreas; Bauer, Christoph; Ehrlich, Stephan;
 Najibi, Asim; Grimme, Stefan. , 19 (48), (2017). 
 A look at the density functional theory zoo with the advanced GMTKN55 database
 for general main group thermochemistry, kinetics and noncovalent interactions.
 https://doi.org/10.1039/C7CP04913G

 Schuett, Ole; Messmer, Peter; Hutter, Juerg; VandeVondele, Joost. 
 Electronic Structure Calculations on Graphics Processing Units, John
 Wiley & Sons, Ltd, 173-190 (2016). 
 GPU-Accelerated Sparse Matrix-Matrix Multiplication for
 Linear Scaling Density Functional Theory.
 https://doi.org/10.1002/9781118670712.ch8

 Borstnik, U; VandeVondele, J; Weber, V; Hutter, J. 
 PARALLEL COMPUTING, 40 (5-6), 47-58 (2014). 
 Sparse matrix multiplication: The distributed block-compressed sparse
 row library.
 https://doi.org/10.1016/j.parco.2014.03.012

 Hutter, J; Iannuzzi, M; Schiffmann, F; VandeVondele, J. 
 WIREs Comput Mol Sci., 4 (1), 15-25 (2014). 
 CP2K: atomistic simulations of condensed matter systems.
 https://doi.org/10.1002/wcms.1159

 Marek, A; Blum, V; Johanni, R; Havu, V; Lang, B; Auckenthaler, T;
 Heinecke, A; Bungartz, H; Lederer, H. 
 Journal of Physics: Condensed Matter, 26 (21), (2014). 
 The ELPA library: scalable parallel eigenvalue solutions for
 electronic structure
 theory and computational science.
 https://doi.org/10.1088/0953-8984/26/21/213201

 Grimme, S; Ehrlich, S; Goerigk, L. 
 JOURNAL OF COMPUTATIONAL CHEMISTRY, 32, 1456 (2011). 
 Effect of the damping function in dispersion corrected density functional theory.
 https://doi.org/10.1002/jcc.21759

 Grimme, S; Antony, J; Ehrlich, S; Krieg, H. 
 JOURNAL OF CHEMICAL PHYSICS, 132 (15), 154104 (2010). 
 A consistent and accurate ab initio parametrization of density
 functional dispersion correction (DFT-D) for the 94 elements H-Pu.
 https://doi.org/10.1063/1.3382344

 VandeVondele, J; Hutter, J. 
 JOURNAL OF CHEMICAL PHYSICS, 127 (11), 114105 (2007). 
 Gaussian basis sets for accurate calculations on molecular systems in
 gas and condensed phases.
 https://doi.org/10.1063/1.2770708

 Krack, M. 
 THEORETICAL CHEMISTRY ACCOUNTS, 114 (1-3), 145-152 (2005). 
 Pseudopotentials for H to Kr optimized for gradient-corrected
 exchange-correlation functionals.
 https://doi.org/10.1007/s00214-005-0655-y

 VandeVondele, J; Krack, M; Mohamed, F; Parrinello, M; Chassaing, T;
 Hutter, J. COMPUTER PHYSICS COMMUNICATIONS, 167 (2), 103-128 (2005). 
 QUICKSTEP: Fast and accurate density functional calculations using a
 mixed Gaussian and plane waves approach.
 https://doi.org/10.1016/j.cpc.2004.12.014

 Frigo, M; Johnson, SG. 
 PROCEEDINGS OF THE IEEE, 93 (2), 216-231 (2005). 
 The design and implementation of FFTW3.
 https://doi.org/10.1109/JPROC.2004.840301

 Hartwigsen, C; Goedecker, S; Hutter, J. 
 PHYSICAL REVIEW B, 58 (7), 3641-3662 (1998). 
 Relativistic separable dual-space Gaussian pseudopotentials from H to Rn.
 https://doi.org/10.1103/PhysRevB.58.3641

 Lippert, G; Hutter, J; Parrinello, M. 
 MOLECULAR PHYSICS, 92 (3), 477-487 (1997). 
 A hybrid Gaussian and plane wave density functional scheme.
 https://doi.org/10.1080/002689797170220

 Perdew, JP; Burke, K; Ernzerhof, M. 
 PHYSICAL REVIEW LETTERS, 77 (18), 3865-3868 (1996). 
 Generalized gradient approximation made simple.
 https://doi.org/10.1103/PhysRevLett.77.3865

 Goedecker, S; Teter, M; Hutter, J. 
 PHYSICAL REVIEW B, 54 (3), 1703-1710 (1996). 
 Separable dual-space Gaussian pseudopotentials.
 https://doi.org/10.1103/PhysRevB.54.1703


 -------------------------------------------------------------------------------
 -                                                                             -
 -                                T I M I N G                                  -
 -                                                                             -
 -------------------------------------------------------------------------------
 SUBROUTINE                       CALLS  ASD         SELF TIME        TOTAL TIME
                                MAXIMUM       AVERAGE  MAXIMUM  AVERAGE  MAXIMUM
 CP2K                                 1  1.0     4.25     4.48 55931.55 55931.57
 qs_energies                          5  2.0     0.01     0.03 55886.42 55886.80
 scf_env_do_scf                       5  3.0     0.00     0.02 55798.14 55798.59
 scf_env_do_scf_inner_loop          347  4.0     0.05     0.09 55798.14 55798.59
 qs_scf_new_mos                     347  5.0     0.03     0.04 48785.54 48788.36
 eigensolver                        347  6.0     0.05     0.09 48209.34 48213.68
 cp_fm_diag_elpa                    322  7.0     0.01     0.02 44442.02 44449.38
 cp_fm_diag_elpa_base               322  8.0 44416.68 44424.15 44427.08 44428.31
 cp_fm_triangular_multiply         1041  7.0  3706.61  3719.02  3706.61  3719.02
 qs_ks_update_qs_env                347  5.0     0.01     0.02  3276.95  3280.43
 rebuild_ks_matrix                  347  6.0     0.00     0.00  3256.62  3260.14
 qs_ks_build_kohn_sham_matrix       347  7.0     0.15     0.23  3256.62  3260.14
 qs_rho_update_rho_low              352  5.0     0.00     0.00  2547.45  2549.49
 calculate_rho_elec                 352  6.0     7.46     7.75  2547.45  2549.48
 density_rs2pw                      352  7.0     0.06     0.13  2025.42  2307.32
 sum_up_and_integrate               347  8.0    13.10    14.31  2173.11  2177.26
 integrate_v_rspace                 347  9.0     0.03     0.05  2160.01  2163.83
 rs_pw_transfer                    2801  9.5     0.12     0.17  1724.66  2009.53
 grid_collocate_task_list           352  7.0   476.65  1523.64   476.65  1523.64
 pw_transfer                       4536  8.9     0.99     1.17  1489.98  1516.76
 fft_wrap_pw1pw2                   3842  9.9     0.11     0.16  1460.73  1485.76
 grid_integrate_task_list           347 10.0   433.46  1470.42   433.46  1470.42
 mp_alltoall_d11v                  4893  9.3  1160.11  1437.00  1160.11  1437.00
 mp_waitany                       11224 11.5  1126.09  1408.83  1126.09  1408.83
 rs_pw_transfer_RS2PW_150           357  9.0    27.60    33.15   889.48  1397.02
 fft_wrap_pw1pw2_150               1745 10.2   109.71   120.59  1324.53  1355.86
 rs_gather_matrices                 347 10.0     0.71     0.90  1061.59  1339.22
 gspace_mixing                      342  5.0     7.28     7.59  1185.09  1185.36
 -------------------------------------------------------------------------------

 The number of warnings for this run is : 6
 
 -------------------------------------------------------------------------------
  **** **** ******  **  PROGRAM ENDED AT                 2025-02-28 07:50:53.174
 ***** ** ***  *** **   PROGRAM RAN ON                                sebnode127
 **    ****   ******    PROGRAM RAN BY                                    luehrs
 ***** **    ** ** **   PROGRAM PROCESS ID                                953126
  **** **  *******  **  PROGRAM STOPPED IN /home/luehrs/PhD/Sodium_batteries/Sod
                                           ium-graphene-curvature/Curved_surface
                                           /Zig-Zag1
