 DBCSR| CPU Multiplication driver                                           BLAS (U)
 DBCSR| Multrec recursion limit                                              512 (U)
 DBCSR| Multiplication stack size                                           1000 (D)
 DBCSR| Maximum elements for images                                    UNLIMITED (U)
 DBCSR| Multiplicative factor virtual images                                   1 (U)
 DBCSR| Use multiplication densification                                       T (D)
 DBCSR| Multiplication size stacks                                             3 (U)
 DBCSR| Use memory pool for CPU allocation                                     F (U)
 DBCSR| Number of 3D layers                                               SINGLE (U)
 DBCSR| Use MPI memory allocation                                              F (U)
 DBCSR| Use RMA algorithm                                                      F (U)
 DBCSR| Use Communication thread                                               T (U)
 DBCSR| Communication thread load                                             87 (D)
 DBCSR| MPI: My process id                                                     0
 DBCSR| MPI: Number of processes                                              16
 DBCSR| OMP: Current number of threads                                         1
 DBCSR| OMP: Max number of threads                                             1
 DBCSR| Split modifier for TAS multiplication algorithm                  1.0E+00 (U)


  **** **** ******  **  PROGRAM STARTED AT               2025-07-10 13:35:15.586
 ***** ** ***  *** **   PROGRAM STARTED ON                            sebnode130
 **    ****   ******    PROGRAM STARTED BY                                luehrs
 ***** **    ** ** **   PROGRAM PROCESS ID                               1119453
  **** **  *******  **  PROGRAM STARTED IN /home/luehrs/PhD/Sodium_batteries/Sod
                                           ium-graphene-surface/Zig-Zag_1

 CP2K| version string:                                       CP2K version 2023.1
 CP2K| source code revision number:                                  git:b888bd8
 CP2K| cp2kflags: omp libint fftw3 libxc elpa parallel scalapack spglib         
 CP2K| is freely available from                            https://www.cp2k.org/
 CP2K| Program compiled at                          Tue Jan 10 19:52:03 UTC 2023
 CP2K| Program compiled on                                            x86-ubc-01
 CP2K| Program compiled for                                Linux-x86_64-gfortran
 CP2K| Data directory path                                       /usr/share/cp2k
 CP2K| Input file name                                         input.zig-zag.inp

 GLOBAL| Force Environment number                                              1
 GLOBAL| Basis set file name                                      ./BASIS_MOLOPT
 GLOBAL| Potential file name                                    ./GTH_POTENTIALS
 GLOBAL| MM Potential file name                                     MM_POTENTIAL
 GLOBAL| Coordinate file name           graphene_zig-zag_no_hydrogen_PBE_relaxed
 GLOBAL| Method name                                                        CP2K
 GLOBAL| Project name                                          graphene_BSSE_PBE
 GLOBAL| Run type                                                           BSSE
 GLOBAL| FFT library                                                       FFTW3
 GLOBAL| Diagonalization library                                            ELPA
 GLOBAL| DGEMM library                                                      BLAS
 GLOBAL| Minimum number of eigenvectors for ELPA usage                        16
 GLOBAL| Orthonormality check for eigenvectors                          DISABLED
 GLOBAL| Matrix multiplication library                                 ScaLAPACK
 GLOBAL| All-to-all communication in single precision                          F
 GLOBAL| FFTs using library dependent lengths                                  F
 GLOBAL| Grid backend                                                       AUTO
 GLOBAL| Global print level                                                  LOW
 GLOBAL| MPI I/O enabled                                                       T
 GLOBAL| Total number of message passing processes                            16
 GLOBAL| Number of threads for this process                                    1
 GLOBAL| This output is from process                                           0
 GLOBAL| Stack size for threads created by OpenMP (OMP_STACKSIZE)        default
 GLOBAL| CPU model name                          AMD EPYC 7513 32-Core Processor

 MEMORY| system memory details [Kb]
 MEMORY|                        rank 0           min           max       average
 MEMORY| MemTotal            131832644     131832644     131832644     131832644
 MEMORY| MemFree             114434888     114434888     114434888     114434888
 MEMORY| Buffers                161204        161204        161204        161204
 MEMORY| Cached                 345304        345300        345304        345300
 MEMORY| Slab                   840528        840528        840528        840528
 MEMORY| SReclaimable           154764        154764        154764        154764
 MEMORY| MemLikelyFree       115096160     115096156     115096160     115096156


 GENERATE|  Preliminary Number of Bonds generated:                             0
 GENERATE|  Achieved consistency in connectivity generation.

 *******************************************************************************
 *******************************************************************************
 **                                                                           **
 **     #####                         ##              ##                      **
 **    ##   ##            ##          ##              ##                      **
 **   ##     ##                       ##            ######                    **
 **   ##     ##  ##   ##  ##   #####  ##  ##   ####   ##    #####    #####    **
 **   ##     ##  ##   ##  ##  ##      ## ##   ##      ##   ##   ##  ##   ##   **
 **   ##  ## ##  ##   ##  ##  ##      ####     ###    ##   ######   ######    **
 **    ##  ###   ##   ##  ##  ##      ## ##      ##   ##   ##       ##        **
 **     #######   #####   ##   #####  ##  ##  ####    ##    #####   ##        **
 **           ##                                                    ##        **
 **                                                                           **
 **                                                ... make the atoms dance   **
 **                                                                           **
 **            Copyright (C) by CP2K developers group (2000-2022)             **
 **                      J. Chem. Phys. 152, 194103 (2020)                    **
 **                                                                           **
 *******************************************************************************


 TOTAL NUMBERS AND MAXIMUM NUMBERS

  Total number of            - Atomic kinds:                                   2
                             - Atoms:                                        113
                             - Shell sets:                                   113
                             - Shells:                                       565
                             - Primitive Cartesian functions:                567
                             - Cartesian basis functions:                   1577
                             - Spherical basis functions:                   1465

  Maximum angular momentum of- Orbital basis functions:                        2
                             - Local part of the GTH pseudopotential:          2
                             - Non-local part of the GTH pseudopotential:      1


 SCF PARAMETERS         Density guess:                                    ATOMIC
                        --------------------------------------------------------
                        max_scf:                                             100
                        max_scf_history:                                       0
                        max_diis:                                              4
                        --------------------------------------------------------
                        eps_scf:                                        3.00E-07
                        eps_scf_history:                                0.00E+00
                        eps_diis:                                       1.00E-01
                        eps_eigval:                                     1.00E-05
                        --------------------------------------------------------
                        level_shift [a.u.]:                             0.000000
                        added MOs                                       100  100
                        --------------------------------------------------------
                        Mixing method:                            BROYDEN_MIXING
                                                charge density mixing in g-space
                        --------------------------------------------------------
                        Smear method:                                FERMI_DIRAC
                        Electronic temperature [K]:                        300.0
                        Electronic temperature [a.u.]:                  9.50E-04
                        Accuracy threshold:                             1.00E-10
                        --------------------------------------------------------
                        Outer loop SCF in use 
                        No variables optimised in outer loop
                        eps_scf                                         1.00E-06
                        max_scf                                               30
                        DIIS optimization
                        DIIS buffer length                                     3
                        step_size                                       5.00E-01

 -------------------------------------------------------------------------------
 -                                                                             -
 -  BSSE CALCULATION         FRAGMENT CONF: 10        FRAGMENT SUBCONF: 10     -
 -                           CHARGE =     0           MULTIPLICITY =     0     -
 -                                                                             -
 -                 ATOM INDEX                              ATOM NAME           -
 -                 ----------                              ---------           -
 -                      1                                   C                  -
 -                      2                                   C                  -
 -                      3                                   C                  -
 -                      4                                   C                  -
 -                      5                                   C                  -
 -                      6                                   C                  -
 -                      7                                   C                  -
 -                      8                                   C                  -
 -                      9                                   C                  -
 -                     10                                   C                  -
 -                     11                                   C                  -
 -                     12                                   C                  -
 -                     13                                   C                  -
 -                     14                                   C                  -
 -                     15                                   C                  -
 -                     16                                   C                  -
 -                     17                                   C                  -
 -                     18                                   C                  -
 -                     19                                   C                  -
 -                     20                                   C                  -
 -                     21                                   C                  -
 -                     22                                   C                  -
 -                     23                                   C                  -
 -                     24                                   C                  -
 -                     25                                   C                  -
 -                     26                                   C                  -
 -                     27                                   C                  -
 -                     28                                   C                  -
 -                     29                                   C                  -
 -                     30                                   C                  -
 -                     31                                   C                  -
 -                     32                                   C                  -
 -                     33                                   C                  -
 -                     34                                   C                  -
 -                     35                                   C                  -
 -                     36                                   C                  -
 -                     37                                   C                  -
 -                     38                                   C                  -
 -                     39                                   C                  -
 -                     40                                   C                  -
 -                     41                                   C                  -
 -                     42                                   C                  -
 -                     43                                   C                  -
 -                     44                                   C                  -
 -                     45                                   C                  -
 -                     46                                   C                  -
 -                     47                                   C                  -
 -                     48                                   C                  -
 -                     49                                   C                  -
 -                     50                                   C                  -
 -                     51                                   C                  -
 -                     52                                   C                  -
 -                     53                                   C                  -
 -                     54                                   C                  -
 -                     55                                   C                  -
 -                     56                                   C                  -
 -                     57                                   C                  -
 -                     58                                   C                  -
 -                     59                                   C                  -
 -                     60                                   C                  -
 -                     61                                   C                  -
 -                     62                                   C                  -
 -                     63                                   C                  -
 -                     64                                   C                  -
 -                     65                                   C                  -
 -                     66                                   C                  -
 -                     67                                   C                  -
 -                     68                                   C                  -
 -                     69                                   C                  -
 -                     70                                   C                  -
 -                     71                                   C                  -
 -                     72                                   C                  -
 -                     73                                   C                  -
 -                     74                                   C                  -
 -                     75                                   C                  -
 -                     76                                   C                  -
 -                     77                                   C                  -
 -                     78                                   C                  -
 -                     79                                   C                  -
 -                     80                                   C                  -
 -                     81                                   C                  -
 -                     82                                   C                  -
 -                     83                                   C                  -
 -                     84                                   C                  -
 -                     85                                   C                  -
 -                     86                                   C                  -
 -                     87                                   C                  -
 -                     88                                   C                  -
 -                     89                                   C                  -
 -                     90                                   C                  -
 -                     91                                   C                  -
 -                     92                                   C                  -
 -                     93                                   C                  -
 -                     94                                   C                  -
 -                     95                                   C                  -
 -                     96                                   C                  -
 -                     97                                   C                  -
 -                     98                                   C                  -
 -                     99                                   C                  -
 -                    100                                   C                  -
 -                    101                                   C                  -
 -                    102                                   C                  -
 -                    103                                   C                  -
 -                    104                                   C                  -
 -                    105                                   C                  -
 -                    106                                   C                  -
 -                    107                                   C                  -
 -                    108                                   C                  -
 -                    109                                   C                  -
 -                    110                                   C                  -
 -                    111                                   C                  -
 -                    112                                   C                  -
 -------------------------------------------------------------------------------

 *******************************************************************************
 *******************************************************************************
 **                                                                           **
 **     #####                         ##              ##                      **
 **    ##   ##            ##          ##              ##                      **
 **   ##     ##                       ##            ######                    **
 **   ##     ##  ##   ##  ##   #####  ##  ##   ####   ##    #####    #####    **
 **   ##     ##  ##   ##  ##  ##      ## ##   ##      ##   ##   ##  ##   ##   **
 **   ##  ## ##  ##   ##  ##  ##      ####     ###    ##   ######   ######    **
 **    ##  ###   ##   ##  ##  ##      ## ##      ##   ##   ##       ##        **
 **     #######   #####   ##   #####  ##  ##  ####    ##    #####   ##        **
 **           ##                                                    ##        **
 **                                                                           **
 **                                                ... make the atoms dance   **
 **                                                                           **
 **            Copyright (C) by CP2K developers group (2000-2022)             **
 **                      J. Chem. Phys. 152, 194103 (2020)                    **
 **                                                                           **
 *******************************************************************************


 TOTAL NUMBERS AND MAXIMUM NUMBERS

  Total number of            - Atomic kinds:                                   1
                             - Atoms:                                        112
                             - Shell sets:                                   112
                             - Shells:                                       560
                             - Primitive Cartesian functions:                560
                             - Cartesian basis functions:                   1568
                             - Spherical basis functions:                   1456

  Maximum angular momentum of- Orbital basis functions:                        2
                             - Local part of the GTH pseudopotential:          2
                             - Non-local part of the GTH pseudopotential:      0


 SCF PARAMETERS         Density guess:                                    ATOMIC
                        --------------------------------------------------------
                        max_scf:                                             100
                        max_scf_history:                                       0
                        max_diis:                                              4
                        --------------------------------------------------------
                        eps_scf:                                        3.00E-07
                        eps_scf_history:                                0.00E+00
                        eps_diis:                                       1.00E-01
                        eps_eigval:                                     1.00E-05
                        --------------------------------------------------------
                        level_shift [a.u.]:                             0.000000
                        added MOs                                       100  100
                        --------------------------------------------------------
                        Mixing method:                            BROYDEN_MIXING
                                                charge density mixing in g-space
                        --------------------------------------------------------
                        Smear method:                                FERMI_DIRAC
                        Electronic temperature [K]:                        300.0
                        Electronic temperature [a.u.]:                  9.50E-04
                        Accuracy threshold:                             1.00E-10
                        --------------------------------------------------------
                        Outer loop SCF in use 
                        No variables optimised in outer loop
                        eps_scf                                         1.00E-06
                        max_scf                                               30
                        DIIS optimization
                        DIIS buffer length                                     3
                        step_size                                       5.00E-01

 Spin 1

 Number of electrons:                                                        224
 Number of occupied orbitals:                                                224
 Number of molecular orbitals:                                               324

 Spin 2

 Number of electrons:                                                        224
 Number of occupied orbitals:                                                224
 Number of molecular orbitals:                                               324

 Number of orbital functions:                                               1456
 Number of independent orbital functions:                                   1456

 Extrapolation method: initial_guess


 SCF WAVEFUNCTION OPTIMIZATION

  Step     Update method      Time    Convergence         Total energy    Change
  ------------------------------------------------------------------------------
     1 NoMix/Diag. 0.10E+00    7.2     0.46285689      -633.6350594742 -6.34E+02
     2 Broy./Diag. 0.10E+00   11.2     0.00116525      -608.6930998596  2.49E+01
     3 Broy./Diag. 0.10E+00   11.5     0.01303953      -627.9855769901 -1.93E+01
     4 Broy./Diag. 0.10E+00   12.0     0.00018118      -636.1360968870 -8.15E+00
     5 Broy./Diag. 0.10E+00   11.4     0.00130744      -636.4375888469 -3.01E-01
     6 Broy./Diag. 0.10E+00   11.5     0.00005275      -637.1231599059 -6.86E-01
     7 Broy./Diag. 0.10E+00   11.7     0.00046376      -637.4416803684 -3.19E-01
     8 Broy./Diag. 0.10E+00   12.2     0.00002574      -637.6637147760 -2.22E-01
     9 Broy./Diag. 0.10E+00   11.7     0.00036775      -637.7674003932 -1.04E-01
    10 Broy./Diag. 0.10E+00   12.0     0.00002647      -637.9055488607 -1.38E-01
    11 Broy./Diag. 0.10E+00   12.6     0.00032679      -637.8606342142  4.49E-02
    12 Broy./Diag. 0.10E+00   11.9     0.00001524      -637.9075592249 -4.69E-02
    13 Broy./Diag. 0.10E+00   12.0     0.00022773      -637.9403882074 -3.28E-02
    14 Broy./Diag. 0.10E+00   12.4     0.00002462      -637.9653736195 -2.50E-02
    15 Broy./Diag. 0.10E+00   11.9     0.00019528      -637.9824307873 -1.71E-02
    16 Broy./Diag. 0.10E+00   12.3     0.00000908      -637.9850148986 -2.58E-03
    17 Broy./Diag. 0.10E+00   12.2     0.00001777      -637.9724963728  1.25E-02
    18 Broy./Diag. 0.10E+00   12.1     0.00002584      -637.9602612127  1.22E-02
    19 Broy./Diag. 0.10E+00   12.5     0.00000378      -637.9599890500  2.72E-04
    20 Broy./Diag. 0.10E+00   11.9     0.00001085      -637.9633857223 -3.40E-03
    21 Broy./Diag. 0.10E+00   12.7     0.00000821      -637.9676616240 -4.28E-03
    22 Broy./Diag. 0.10E+00   11.9     0.00000947      -637.9713608225 -3.70E-03
    23 Broy./Diag. 0.10E+00   12.7     0.00001488      -637.9722704790 -9.10E-04
    24 Broy./Diag. 0.10E+00   12.0     0.00000173      -637.9717130544  5.57E-04
    25 Broy./Diag. 0.10E+00    9.1     0.00002115      -637.9713568880  3.56E-04
    26 Broy./Diag. 0.10E+00    7.0     0.00000461      -637.9732972694 -1.94E-03
    27 Broy./Diag. 0.10E+00    7.1     0.00001182      -637.9763185368 -3.02E-03
    28 Broy./Diag. 0.10E+00    7.1     0.00000239      -637.9773464503 -1.03E-03
    29 Broy./Diag. 0.10E+00    7.1     0.00000197      -637.9765717536  7.75E-04
    30 Broy./Diag. 0.10E+00    7.1     0.00000113      -637.9757416998  8.30E-04
    31 Broy./Diag. 0.10E+00    7.2     0.00000042      -637.9754425082  2.99E-04
    32 Broy./Diag. 0.10E+00    7.3     0.00000168      -637.9751641270  2.78E-04
    33 Broy./Diag. 0.10E+00    7.4     0.00000100      -637.9752846571 -1.21E-04
    34 Broy./Diag. 0.10E+00    7.4     0.00000047      -637.9755931688 -3.09E-04
    35 Broy./Diag. 0.10E+00    7.5     0.00000124      -637.9757552922 -1.62E-04
    36 Broy./Diag. 0.10E+00    7.4     0.00000040      -637.9757353411  2.00E-05
    37 Broy./Diag. 0.10E+00    7.5     0.00000098      -637.9756039312  1.31E-04
    38 Broy./Diag. 0.10E+00    7.5     0.00000024      -637.9756417507 -3.78E-05

  *** SCF run converged in    38 steps ***


  Electronic density on regular grids:       -447.9999999998        0.0000000002
  Core density on regular grids:              447.9999999996       -0.0000000004
  Total charge density on r-space grids:       -0.0000000002
  Total charge density g-space grids:          -0.0000000002

  Overlap energy of the core charge distribution:               0.00001885768358
  Self energy of the core charge distribution:              -1493.52088779770361
  Core Hamiltonian energy:                                    468.08952279758643
  Hartree energy:                                             583.39220792520416
  Exchange-correlation energy:                               -195.79510679956545
  Dispersion energy:                                           -0.14139673389448
  Electronic entropic energy:                                  -0.00000000000109
  Fermi energy:                                                -0.10269178614759

  Total energy:                                              -637.97564175069067

  outer SCF iter =    1 RMS gradient =   0.24E-06 energy =       -637.9756417507
  outer SCF loop converged in   1 iterations or   38 steps


  Integrated absolute spin density  :                               0.0000000000
  WARNING: S**2 computation does not yet treat fractional occupied orbitals

 *** WARNING in qs_loc_utils.F:1500 :: User requested the calculation of ***
 *** the localized wavefunction but the section LOCALIZE was not         ***
 *** specified. Localization will not be performed!                      ***


 -------------------------------------------------------------------------------
 -                                                                             -
 -  BSSE CALCULATION         FRAGMENT CONF: 01        FRAGMENT SUBCONF: 01     -
 -                           CHARGE =     0           MULTIPLICITY =     0     -
 -                                                                             -
 -                 ATOM INDEX                              ATOM NAME           -
 -                 ----------                              ---------           -
 -                    113                                   Na                 -
 -------------------------------------------------------------------------------

 *******************************************************************************
 *******************************************************************************
 **                                                                           **
 **     #####                         ##              ##                      **
 **    ##   ##            ##          ##              ##                      **
 **   ##     ##                       ##            ######                    **
 **   ##     ##  ##   ##  ##   #####  ##  ##   ####   ##    #####    #####    **
 **   ##     ##  ##   ##  ##  ##      ## ##   ##      ##   ##   ##  ##   ##   **
 **   ##  ## ##  ##   ##  ##  ##      ####     ###    ##   ######   ######    **
 **    ##  ###   ##   ##  ##  ##      ## ##      ##   ##   ##       ##        **
 **     #######   #####   ##   #####  ##  ##  ####    ##    #####   ##        **
 **           ##                                                    ##        **
 **                                                                           **
 **                                                ... make the atoms dance   **
 **                                                                           **
 **            Copyright (C) by CP2K developers group (2000-2022)             **
 **                      J. Chem. Phys. 152, 194103 (2020)                    **
 **                                                                           **
 *******************************************************************************

 *** WARNING in qs_environment.F:1470 :: More ADDED_MOs requested for beta ***
 *** spin than available.                                                  ***


 *** WARNING in qs_environment.F:1486 :: More added MOs requested than     ***
 *** available. The full set of unoccupied MOs will be used. Use           ***
 *** 'ADDED_MOS -1' to always use all available MOs and to get rid of this ***
 *** warning.                                                              ***



 TOTAL NUMBERS AND MAXIMUM NUMBERS

  Total number of            - Atomic kinds:                                   1
                             - Atoms:                                          1
                             - Shell sets:                                     1
                             - Shells:                                         5
                             - Primitive Cartesian functions:                  7
                             - Cartesian basis functions:                      9
                             - Spherical basis functions:                      9

  Maximum angular momentum of- Orbital basis functions:                        1
                             - Local part of the GTH pseudopotential:          2
                             - Non-local part of the GTH pseudopotential:      1


 SCF PARAMETERS         Density guess:                                    ATOMIC
                        --------------------------------------------------------
                        max_scf:                                             100
                        max_scf_history:                                       0
                        max_diis:                                              4
                        --------------------------------------------------------
                        eps_scf:                                        3.00E-07
                        eps_scf_history:                                0.00E+00
                        eps_diis:                                       1.00E-01
                        eps_eigval:                                     1.00E-05
                        --------------------------------------------------------
                        level_shift [a.u.]:                             0.000000
                        added MOs                                         4    5
                        --------------------------------------------------------
                        Mixing method:                            BROYDEN_MIXING
                                                charge density mixing in g-space
                        --------------------------------------------------------
                        Smear method:                                FERMI_DIRAC
                        Electronic temperature [K]:                        300.0
                        Electronic temperature [a.u.]:                  9.50E-04
                        Accuracy threshold:                             1.00E-10
                        --------------------------------------------------------
                        Outer loop SCF in use 
                        No variables optimised in outer loop
                        eps_scf                                         1.00E-06
                        max_scf                                               30
                        DIIS optimization
                        DIIS buffer length                                     3
                        step_size                                       5.00E-01

 Spin 1

 Number of electrons:                                                          5
 Number of occupied orbitals:                                                  5
 Number of molecular orbitals:                                                 9

 Spin 2

 Number of electrons:                                                          4
 Number of occupied orbitals:                                                  4
 Number of molecular orbitals:                                                 9

 Number of orbital functions:                                                  9
 Number of independent orbital functions:                                      9

 Extrapolation method: initial_guess


 SCF WAVEFUNCTION OPTIMIZATION

  Step     Update method      Time    Convergence         Total energy    Change
  ------------------------------------------------------------------------------
     1 NoMix/Diag. 0.10E+00    0.9     0.42030258       -47.1729818660 -4.72E+01
     2 Broy./Diag. 0.10E+00    3.0     0.00652460       -47.1319757704  4.10E-02
     3 Broy./Diag. 0.10E+00    2.6     0.02138160       -47.1736051754 -4.16E-02
     4 Broy./Diag. 0.10E+00    2.1     0.00032140       -47.1651088535  8.50E-03
     5 Broy./Diag. 0.10E+00    2.1     0.12532711       -47.1777532115 -1.26E-02
     6 Broy./Diag. 0.10E+00    2.2     0.01859436       -46.7641100943  4.14E-01
     7 Broy./Diag. 0.10E+00    3.3     0.00457280       -46.7474271604  1.67E-02
     8 Broy./Diag. 0.10E+00    2.4     0.01503792       -46.7541140968 -6.69E-03
     9 Broy./Diag. 0.10E+00    2.3     0.04451329       -46.8524700258 -9.84E-02
    10 Broy./Diag. 0.10E+00    2.5     0.01672316       -47.0156272129 -1.63E-01
    11 Broy./Diag. 0.10E+00    3.5     0.00545353       -47.0889395144 -7.33E-02
    12 Broy./Diag. 0.10E+00    3.1     0.02095757       -47.1157660873 -2.68E-02
    13 Broy./Diag. 0.10E+00    2.4     0.01672928       -47.1939430144 -7.82E-02
    14 Broy./Diag. 0.10E+00    2.5     0.00462577       -47.2295245741 -3.56E-02
    15 Broy./Diag. 0.10E+00    2.8     0.01431507       -47.2058141239  2.37E-02
    16 Broy./Diag. 0.10E+00    3.7     0.00364792       -47.2585886235 -5.28E-02
    17 Broy./Diag. 0.10E+00    2.5     0.00109702       -47.2640610878 -5.47E-03
    18 Broy./Diag. 0.10E+00    2.4     0.00285945       -47.2800829029 -1.60E-02
    19 Broy./Diag. 0.10E+00    2.6     0.00469169       -47.2958075864 -1.57E-02
    20 Broy./Diag. 0.10E+00    3.5     0.00153454       -47.3142489860 -1.84E-02
    21 Broy./Diag. 0.10E+00    2.6     0.00023305       -47.3190427526 -4.79E-03
    22 Broy./Diag. 0.10E+00    2.4     0.00007140       -47.3154248011  3.62E-03
    23 Broy./Diag. 0.10E+00    2.4     0.00032858       -47.3205721802 -5.15E-03
    24 Broy./Diag. 0.10E+00    3.5     0.01965305       -47.3040018890  1.66E-02
    25 Broy./Diag. 0.10E+00    3.2     0.00406212       -47.2144770845  8.95E-02
    26 Broy./Diag. 0.10E+00    2.4     0.00076218       -47.1988987254  1.56E-02
    27 Broy./Diag. 0.10E+00    2.4     0.00007421       -47.1930323248  5.87E-03
    28 Broy./Diag. 0.10E+00    2.6     0.00086844       -47.1848680502  8.16E-03
    29 Broy./Diag. 0.10E+00    3.7     0.00205852       -47.1779079918  6.96E-03
    30 Broy./Diag. 0.10E+00    2.6     0.00120785       -47.1807510536 -2.84E-03
    31 Broy./Diag. 0.10E+00    2.4     0.00291999       -47.1844481186 -3.70E-03
    32 Broy./Diag. 0.10E+00    2.7     0.00341732       -47.1948449121 -1.04E-02
    33 Broy./Diag. 0.10E+00    3.4     0.00217145       -47.2106282875 -1.58E-02
    34 Broy./Diag. 0.10E+00    2.8     0.00248046       -47.2196537685 -9.03E-03
    35 Broy./Diag. 0.10E+00    2.4     0.00603023       -47.2303013198 -1.06E-02
    36 Broy./Diag. 0.10E+00    2.4     0.00005837       -47.2564169843 -2.61E-02
    37 Broy./Diag. 0.10E+00    3.0     0.00000979       -47.2567740824 -3.57E-04
    38 Broy./Diag. 0.10E+00    3.5     0.00096956       -47.2582714947 -1.50E-03
    39 Broy./Diag. 0.10E+00    2.5     0.00018077       -47.2655102277 -7.24E-03
    40 Broy./Diag. 0.10E+00    2.4     0.00030176       -47.2577983196  7.71E-03
    41 Broy./Diag. 0.10E+00    2.5     0.00125646       -47.2452701866  1.25E-02
    42 Broy./Diag. 0.10E+00    3.7     0.00083130       -47.2393026702  5.97E-03
    43 Broy./Diag. 0.10E+00    2.4     0.00019273       -47.2299378863  9.36E-03
    44 Broy./Diag. 0.10E+00    2.4     0.00035976       -47.2081324526  2.18E-02
    45 Broy./Diag. 0.10E+00    2.5     0.00013384       -47.1987767200  9.36E-03
    46 Broy./Diag. 0.10E+00    3.5     0.00002376       -47.1961850198  2.59E-03
    47 Broy./Diag. 0.10E+00    3.1     0.00014991       -47.1859556116  1.02E-02
    48 Broy./Diag. 0.10E+00    2.4     0.00003700       -47.1847212408  1.23E-03
    49 Broy./Diag. 0.10E+00    2.4     0.00013346       -47.1782523936  6.47E-03
    50 Broy./Diag. 0.10E+00    2.7     0.00021102       -47.1714599606  6.79E-03
    51 Broy./Diag. 0.10E+00    3.7     0.00033710       -47.1683930588  3.07E-03
    52 Broy./Diag. 0.10E+00    2.5     0.00012494       -47.1673154939  1.08E-03
    53 Broy./Diag. 0.10E+00    2.4     0.00002023       -47.1672614667  5.40E-05
    54 Broy./Diag. 0.10E+00    2.6     0.00009809       -47.1670813134  1.80E-04
    55 Broy./Diag. 0.10E+00    3.3     0.00004646       -47.1670261788  5.51E-05
    56 Broy./Diag. 0.10E+00    2.7     0.00001897       -47.1670115371  1.46E-05
    57 Broy./Diag. 0.10E+00    2.4     0.00000970       -47.1670234776 -1.19E-05
    58 Broy./Diag. 0.10E+00    2.4     0.00000778       -47.1669438329  7.96E-05
    59 Broy./Diag. 0.10E+00    3.0     0.00000964       -47.1669294009  1.44E-05
    60 Broy./Diag. 0.10E+00    3.5     0.00000778       -47.1672042134 -2.75E-04
    61 Broy./Diag. 0.10E+00    2.5     0.00013029       -47.1670908257  1.13E-04
    62 Broy./Diag. 0.10E+00    2.4     0.00009661       -47.1667543161  3.37E-04
    63 Broy./Diag. 0.10E+00    2.5     0.00002395       -47.1664924325  2.62E-04
    64 Broy./Diag. 0.10E+00    3.7     0.00000911       -47.1668008183 -3.08E-04
    65 Broy./Diag. 0.10E+00    2.4     0.00002571       -47.1670609275 -2.60E-04
    66 Broy./Diag. 0.10E+00    2.4     0.00004203       -47.1673349941 -2.74E-04
    67 Broy./Diag. 0.10E+00    2.4     0.00001895       -47.1674649062 -1.30E-04
    68 Broy./Diag. 0.10E+00    3.5     0.00010700       -47.1671356577  3.29E-04
    69 Broy./Diag. 0.10E+00    3.1     0.00004674       -47.1667561818  3.79E-04
    70 Broy./Diag. 0.10E+00    2.3     0.00001534       -47.1670269215 -2.71E-04
    71 Broy./Diag. 0.10E+00    2.4     0.00000693       -47.1670504505 -2.35E-05
    72 Broy./Diag. 0.10E+00    2.7     0.00002181       -47.1669856924  6.48E-05
    73 Broy./Diag. 0.10E+00    3.7     0.00001088       -47.1669122284  7.35E-05
    74 Broy./Diag. 0.10E+00    2.5     0.00004619       -47.1669331485 -2.09E-05
    75 Broy./Diag. 0.10E+00    2.4     0.00001420       -47.1668419161  9.12E-05
    76 Broy./Diag. 0.10E+00    2.6     0.00002574       -47.1668165692  2.53E-05
    77 Broy./Diag. 0.10E+00    3.3     0.00002125       -47.1668422997 -2.57E-05
    78 Broy./Diag. 0.10E+00    2.8     0.00001477       -47.1661473463  6.95E-04
    79 Broy./Diag. 0.10E+00    2.3     0.00001504       -47.1660082658  1.39E-04
    80 Broy./Diag. 0.10E+00    2.4     0.00000456       -47.1660779038 -6.96E-05
    81 Broy./Diag. 0.10E+00    2.6     0.00000735       -47.1664551194 -3.77E-04
    82 Broy./Diag. 0.10E+00    3.7     0.00000513       -47.1666540860 -1.99E-04
    83 Broy./Diag. 0.10E+00    2.5     0.00000900       -47.1668146453 -1.61E-04
    84 Broy./Diag. 0.10E+00    2.3     0.00002745       -47.1668817638 -6.71E-05
    85 Broy./Diag. 0.10E+00    2.7     0.00000740       -47.1669194031 -3.76E-05
    86 Broy./Diag. 0.10E+00    3.3     0.00000169       -47.1669009239  1.85E-05
    87 Broy./Diag. 0.10E+00    2.8     0.00000553       -47.1669563821 -5.55E-05
    88 Broy./Diag. 0.10E+00    2.3     0.00000088       -47.1669578337 -1.45E-06
    89 Broy./Diag. 0.10E+00    2.4     0.00000072       -47.1669566246  1.21E-06
    90 Broy./Diag. 0.10E+00    2.7     0.00000059       -47.1669550868  1.54E-06
    91 Broy./Diag. 0.10E+00    3.7     0.00000064       -47.1669371129  1.80E-05
    92 Broy./Diag. 0.10E+00    2.5     0.00000146       -47.1669483871 -1.13E-05
    93 Broy./Diag. 0.10E+00    2.4     0.00000305       -47.1669518407 -3.45E-06
    94 Broy./Diag. 0.10E+00    2.6     0.00000552       -47.1669497853  2.06E-06
    95 Broy./Diag. 0.10E+00    3.4     0.00001245       -47.1669413452  8.44E-06
    96 Broy./Diag. 0.10E+00    2.7     0.00000363       -47.1670127719 -7.14E-05
    97 Broy./Diag. 0.10E+00    2.4     0.00000079       -47.1670342131 -2.14E-05
    98 Broy./Diag. 0.10E+00    2.4     0.00000007       -47.1670334259  7.87E-07

  *** SCF run converged in    98 steps ***


  Electronic density on regular grids:         -9.0001209374       -0.0001209374
  Core density on regular grids:                9.0000000000       -0.0000000000
  Total charge density on r-space grids:       -0.0001209374
  Total charge density g-space grids:          -0.0001209374

  Overlap energy of the core charge distribution:               0.00000000000000
  Self energy of the core charge distribution:                -96.60649019442629
  Core Hamiltonian energy:                                     29.76264664177510
  Hartree energy:                                              26.73028585263173
  Exchange-correlation energy:                                 -7.05347226230980
  Dispersion energy:                                           -0.00000346358047
  Electronic entropic energy:                                  -0.00000000000000
  Fermi energy:                                                -0.04843498377199

  Total energy:                                               -47.16703342590972

  outer SCF iter =    1 RMS gradient =   0.69E-07 energy =        -47.1670334259
  outer SCF loop converged in   1 iterations or   98 steps


  Integrated absolute spin density  :                               1.0000425324
  WARNING: S**2 computation does not yet treat fractional occupied orbitals

 *** WARNING in qs_loc_utils.F:1500 :: User requested the calculation of ***
 *** the localized wavefunction but the section LOCALIZE was not         ***
 *** specified. Localization will not be performed!                      ***


 -------------------------------------------------------------------------------
 -                                                                             -
 -  BSSE CALCULATION         FRAGMENT CONF: 11        FRAGMENT SUBCONF: 10     -
 -                           CHARGE =     0           MULTIPLICITY =     0     -
 -                                                                             -
 -                 ATOM INDEX                              ATOM NAME           -
 -                 ----------                              ---------           -
 -                      1                                   C                  -
 -                      2                                   C                  -
 -                      3                                   C                  -
 -                      4                                   C                  -
 -                      5                                   C                  -
 -                      6                                   C                  -
 -                      7                                   C                  -
 -                      8                                   C                  -
 -                      9                                   C                  -
 -                     10                                   C                  -
 -                     11                                   C                  -
 -                     12                                   C                  -
 -                     13                                   C                  -
 -                     14                                   C                  -
 -                     15                                   C                  -
 -                     16                                   C                  -
 -                     17                                   C                  -
 -                     18                                   C                  -
 -                     19                                   C                  -
 -                     20                                   C                  -
 -                     21                                   C                  -
 -                     22                                   C                  -
 -                     23                                   C                  -
 -                     24                                   C                  -
 -                     25                                   C                  -
 -                     26                                   C                  -
 -                     27                                   C                  -
 -                     28                                   C                  -
 -                     29                                   C                  -
 -                     30                                   C                  -
 -                     31                                   C                  -
 -                     32                                   C                  -
 -                     33                                   C                  -
 -                     34                                   C                  -
 -                     35                                   C                  -
 -                     36                                   C                  -
 -                     37                                   C                  -
 -                     38                                   C                  -
 -                     39                                   C                  -
 -                     40                                   C                  -
 -                     41                                   C                  -
 -                     42                                   C                  -
 -                     43                                   C                  -
 -                     44                                   C                  -
 -                     45                                   C                  -
 -                     46                                   C                  -
 -                     47                                   C                  -
 -                     48                                   C                  -
 -                     49                                   C                  -
 -                     50                                   C                  -
 -                     51                                   C                  -
 -                     52                                   C                  -
 -                     53                                   C                  -
 -                     54                                   C                  -
 -                     55                                   C                  -
 -                     56                                   C                  -
 -                     57                                   C                  -
 -                     58                                   C                  -
 -                     59                                   C                  -
 -                     60                                   C                  -
 -                     61                                   C                  -
 -                     62                                   C                  -
 -                     63                                   C                  -
 -                     64                                   C                  -
 -                     65                                   C                  -
 -                     66                                   C                  -
 -                     67                                   C                  -
 -                     68                                   C                  -
 -                     69                                   C                  -
 -                     70                                   C                  -
 -                     71                                   C                  -
 -                     72                                   C                  -
 -                     73                                   C                  -
 -                     74                                   C                  -
 -                     75                                   C                  -
 -                     76                                   C                  -
 -                     77                                   C                  -
 -                     78                                   C                  -
 -                     79                                   C                  -
 -                     80                                   C                  -
 -                     81                                   C                  -
 -                     82                                   C                  -
 -                     83                                   C                  -
 -                     84                                   C                  -
 -                     85                                   C                  -
 -                     86                                   C                  -
 -                     87                                   C                  -
 -                     88                                   C                  -
 -                     89                                   C                  -
 -                     90                                   C                  -
 -                     91                                   C                  -
 -                     92                                   C                  -
 -                     93                                   C                  -
 -                     94                                   C                  -
 -                     95                                   C                  -
 -                     96                                   C                  -
 -                     97                                   C                  -
 -                     98                                   C                  -
 -                     99                                   C                  -
 -                    100                                   C                  -
 -                    101                                   C                  -
 -                    102                                   C                  -
 -                    103                                   C                  -
 -                    104                                   C                  -
 -                    105                                   C                  -
 -                    106                                   C                  -
 -                    107                                   C                  -
 -                    108                                   C                  -
 -                    109                                   C                  -
 -                    110                                   C                  -
 -                    111                                   C                  -
 -                    112                                   C                  -
 -                    113                                   Na_ghost           -
 -------------------------------------------------------------------------------

 *******************************************************************************
 *******************************************************************************
 **                                                                           **
 **     #####                         ##              ##                      **
 **    ##   ##            ##          ##              ##                      **
 **   ##     ##                       ##            ######                    **
 **   ##     ##  ##   ##  ##   #####  ##  ##   ####   ##    #####    #####    **
 **   ##     ##  ##   ##  ##  ##      ## ##   ##      ##   ##   ##  ##   ##   **
 **   ##  ## ##  ##   ##  ##  ##      ####     ###    ##   ######   ######    **
 **    ##  ###   ##   ##  ##  ##      ## ##      ##   ##   ##       ##        **
 **     #######   #####   ##   #####  ##  ##  ####    ##    #####   ##        **
 **           ##                                                    ##        **
 **                                                                           **
 **                                                ... make the atoms dance   **
 **                                                                           **
 **            Copyright (C) by CP2K developers group (2000-2022)             **
 **                      J. Chem. Phys. 152, 194103 (2020)                    **
 **                                                                           **
 *******************************************************************************


 TOTAL NUMBERS AND MAXIMUM NUMBERS

  Total number of            - Atomic kinds:                                   2
                             - Atoms:                                        113
                             - Shell sets:                                   113
                             - Shells:                                       565
                             - Primitive Cartesian functions:                567
                             - Cartesian basis functions:                   1577
                             - Spherical basis functions:                   1465

  Maximum angular momentum of- Orbital basis functions:                        2
                             - Local part of the GTH pseudopotential:          2
                             - Non-local part of the GTH pseudopotential:      0


 SCF PARAMETERS         Density guess:                                    ATOMIC
                        --------------------------------------------------------
                        max_scf:                                             100
                        max_scf_history:                                       0
                        max_diis:                                              4
                        --------------------------------------------------------
                        eps_scf:                                        3.00E-07
                        eps_scf_history:                                0.00E+00
                        eps_diis:                                       1.00E-01
                        eps_eigval:                                     1.00E-05
                        --------------------------------------------------------
                        level_shift [a.u.]:                             0.000000
                        added MOs                                       100  100
                        --------------------------------------------------------
                        Mixing method:                            BROYDEN_MIXING
                                                charge density mixing in g-space
                        --------------------------------------------------------
                        Smear method:                                FERMI_DIRAC
                        Electronic temperature [K]:                        300.0
                        Electronic temperature [a.u.]:                  9.50E-04
                        Accuracy threshold:                             1.00E-10
                        --------------------------------------------------------
                        Outer loop SCF in use 
                        No variables optimised in outer loop
                        eps_scf                                         1.00E-06
                        max_scf                                               30
                        DIIS optimization
                        DIIS buffer length                                     3
                        step_size                                       5.00E-01

 Spin 1

 Number of electrons:                                                        224
 Number of occupied orbitals:                                                224
 Number of molecular orbitals:                                               324

 Spin 2

 Number of electrons:                                                        224
 Number of occupied orbitals:                                                224
 Number of molecular orbitals:                                               324

 Number of orbital functions:                                               1465
 Number of independent orbital functions:                                   1465

 Extrapolation method: initial_guess


 SCF WAVEFUNCTION OPTIMIZATION

  Step     Update method      Time    Convergence         Total energy    Change
  ------------------------------------------------------------------------------
     1 NoMix/Diag. 0.10E+00    4.1     0.46297179      -633.6350594742 -6.34E+02
     2 Broy./Diag. 0.10E+00    7.2     0.00116594      -608.6869043061  2.49E+01
     3 Broy./Diag. 0.10E+00    7.4     0.01304618      -627.9770946814 -1.93E+01
     4 Broy./Diag. 0.10E+00    7.3     0.00018190      -636.1327449305 -8.16E+00
     5 Broy./Diag. 0.10E+00    7.1     0.00129511      -636.4343519982 -3.02E-01
     6 Broy./Diag. 0.10E+00    7.0     0.00005268      -637.1214947295 -6.87E-01
     7 Broy./Diag. 0.10E+00    7.3     0.00045740      -637.4407770168 -3.19E-01
     8 Broy./Diag. 0.10E+00    7.2     0.00002515      -637.6640155450 -2.23E-01
     9 Broy./Diag. 0.10E+00    7.3     0.00035716      -637.7677917264 -1.04E-01
    10 Broy./Diag. 0.10E+00    7.6     0.00002610      -637.9068154913 -1.39E-01
    11 Broy./Diag. 0.10E+00    7.5     0.00031332      -637.8613828256  4.54E-02
    12 Broy./Diag. 0.10E+00    7.6     0.00001456      -637.9084308846 -4.70E-02
    13 Broy./Diag. 0.10E+00    7.6     0.00021512      -637.9419274709 -3.35E-02
    14 Broy./Diag. 0.10E+00    7.8     0.00002363      -637.9669474837 -2.50E-02
    15 Broy./Diag. 0.10E+00    7.8     0.00018419      -637.9837191217 -1.68E-02
    16 Broy./Diag. 0.10E+00    8.1     0.00000844      -637.9861691658 -2.45E-03
    17 Broy./Diag. 0.10E+00    7.9     0.00001732      -637.9736691404  1.25E-02
    18 Broy./Diag. 0.10E+00    7.8     0.00002523      -637.9613670615  1.23E-02
    19 Broy./Diag. 0.10E+00   30.9     0.00000482      -637.9616510935 -2.84E-04
    20 Broy./Diag. 0.10E+00   43.5     0.00001311      -637.9662024280 -4.55E-03
    21 Broy./Diag. 0.10E+00   49.9     0.00000704      -637.9710088641 -4.81E-03
    22 Broy./Diag. 0.10E+00   53.0     0.00001255      -637.9739371452 -2.93E-03
    23 Broy./Diag. 0.10E+00   68.1     0.00001471      -637.9744189867 -4.82E-04
    24 Broy./Diag. 0.10E+00   56.7     0.00000276      -637.9738412054  5.78E-04
    25 Broy./Diag. 0.10E+00   55.3     0.00002316      -637.9737468835  9.43E-05
    26 Broy./Diag. 0.10E+00   57.8     0.00000360      -637.9752785434 -1.53E-03
    27 Broy./Diag. 0.10E+00   50.8     0.00001039      -637.9779211454 -2.64E-03
    28 Broy./Diag. 0.10E+00   55.5     0.00000221      -637.9787519642 -8.31E-04
    29 Broy./Diag. 0.10E+00   54.6     0.00000193      -637.9779732960  7.79E-04
    30 Broy./Diag. 0.10E+00   56.4     0.00000104      -637.9770089562  9.64E-04
    31 Broy./Diag. 0.10E+00   56.7     0.00000046      -637.9766632710  3.46E-04
    32 Broy./Diag. 0.10E+00   58.0     0.00000172      -637.9763757420  2.88E-04
    33 Broy./Diag. 0.10E+00   55.3     0.00000088      -637.9764671700 -9.14E-05
    34 Broy./Diag. 0.10E+00   55.2     0.00000048      -637.9767604785 -2.93E-04
    35 Broy./Diag. 0.10E+00   58.9     0.00000110      -637.9768979191 -1.37E-04
    36 Broy./Diag. 0.10E+00   53.6     0.00000037      -637.9768651658  3.28E-05
    37 Broy./Diag. 0.10E+00   58.2     0.00000090      -637.9767312216  1.34E-04
    38 Broy./Diag. 0.10E+00   62.3     0.00000030      -637.9767618814 -3.07E-05

  *** SCF run converged in    38 steps ***


  Electronic density on regular grids:       -447.9999999994        0.0000000006
  Core density on regular grids:              447.9999999996       -0.0000000004
  Total charge density on r-space grids:        0.0000000002
  Total charge density g-space grids:           0.0000000002

  Overlap energy of the core charge distribution:               0.00001885768358
  Self energy of the core charge distribution:              -1493.52088779770361
  Core Hamiltonian energy:                                    468.08582606780658
  Hartree energy:                                             583.39639194908864
  Exchange-correlation energy:                               -195.79671422439969
  Dispersion energy:                                           -0.14139673389448
  Electronic entropic energy:                                  -0.00000000000109
  Fermi energy:                                                -0.10261086314092

  Total energy:                                              -637.97676188142032

  outer SCF iter =    1 RMS gradient =   0.30E-06 energy =       -637.9767618814
  outer SCF loop converged in   1 iterations or   38 steps


  Integrated absolute spin density  :                               0.0000000004
  WARNING: S**2 computation does not yet treat fractional occupied orbitals

 *** WARNING in qs_loc_utils.F:1500 :: User requested the calculation of ***
 *** the localized wavefunction but the section LOCALIZE was not         ***
 *** specified. Localization will not be performed!                      ***


 -------------------------------------------------------------------------------
 -                                                                             -
 -  BSSE CALCULATION         FRAGMENT CONF: 11        FRAGMENT SUBCONF: 01     -
 -                           CHARGE =     0           MULTIPLICITY =     0     -
 -                                                                             -
 -                 ATOM INDEX                              ATOM NAME           -
 -                 ----------                              ---------           -
 -                      1                                   C_ghost            -
 -                      2                                   C_ghost            -
 -                      3                                   C_ghost            -
 -                      4                                   C_ghost            -
 -                      5                                   C_ghost            -
 -                      6                                   C_ghost            -
 -                      7                                   C_ghost            -
 -                      8                                   C_ghost            -
 -                      9                                   C_ghost            -
 -                     10                                   C_ghost            -
 -                     11                                   C_ghost            -
 -                     12                                   C_ghost            -
 -                     13                                   C_ghost            -
 -                     14                                   C_ghost            -
 -                     15                                   C_ghost            -
 -                     16                                   C_ghost            -
 -                     17                                   C_ghost            -
 -                     18                                   C_ghost            -
 -                     19                                   C_ghost            -
 -                     20                                   C_ghost            -
 -                     21                                   C_ghost            -
 -                     22                                   C_ghost            -
 -                     23                                   C_ghost            -
 -                     24                                   C_ghost            -
 -                     25                                   C_ghost            -
 -                     26                                   C_ghost            -
 -                     27                                   C_ghost            -
 -                     28                                   C_ghost            -
 -                     29                                   C_ghost            -
 -                     30                                   C_ghost            -
 -                     31                                   C_ghost            -
 -                     32                                   C_ghost            -
 -                     33                                   C_ghost            -
 -                     34                                   C_ghost            -
 -                     35                                   C_ghost            -
 -                     36                                   C_ghost            -
 -                     37                                   C_ghost            -
 -                     38                                   C_ghost            -
 -                     39                                   C_ghost            -
 -                     40                                   C_ghost            -
 -                     41                                   C_ghost            -
 -                     42                                   C_ghost            -
 -                     43                                   C_ghost            -
 -                     44                                   C_ghost            -
 -                     45                                   C_ghost            -
 -                     46                                   C_ghost            -
 -                     47                                   C_ghost            -
 -                     48                                   C_ghost            -
 -                     49                                   C_ghost            -
 -                     50                                   C_ghost            -
 -                     51                                   C_ghost            -
 -                     52                                   C_ghost            -
 -                     53                                   C_ghost            -
 -                     54                                   C_ghost            -
 -                     55                                   C_ghost            -
 -                     56                                   C_ghost            -
 -                     57                                   C_ghost            -
 -                     58                                   C_ghost            -
 -                     59                                   C_ghost            -
 -                     60                                   C_ghost            -
 -                     61                                   C_ghost            -
 -                     62                                   C_ghost            -
 -                     63                                   C_ghost            -
 -                     64                                   C_ghost            -
 -                     65                                   C_ghost            -
 -                     66                                   C_ghost            -
 -                     67                                   C_ghost            -
 -                     68                                   C_ghost            -
 -                     69                                   C_ghost            -
 -                     70                                   C_ghost            -
 -                     71                                   C_ghost            -
 -                     72                                   C_ghost            -
 -                     73                                   C_ghost            -
 -                     74                                   C_ghost            -
 -                     75                                   C_ghost            -
 -                     76                                   C_ghost            -
 -                     77                                   C_ghost            -
 -                     78                                   C_ghost            -
 -                     79                                   C_ghost            -
 -                     80                                   C_ghost            -
 -                     81                                   C_ghost            -
 -                     82                                   C_ghost            -
 -                     83                                   C_ghost            -
 -                     84                                   C_ghost            -
 -                     85                                   C_ghost            -
 -                     86                                   C_ghost            -
 -                     87                                   C_ghost            -
 -                     88                                   C_ghost            -
 -                     89                                   C_ghost            -
 -                     90                                   C_ghost            -
 -                     91                                   C_ghost            -
 -                     92                                   C_ghost            -
 -                     93                                   C_ghost            -
 -                     94                                   C_ghost            -
 -                     95                                   C_ghost            -
 -                     96                                   C_ghost            -
 -                     97                                   C_ghost            -
 -                     98                                   C_ghost            -
 -                     99                                   C_ghost            -
 -                    100                                   C_ghost            -
 -                    101                                   C_ghost            -
 -                    102                                   C_ghost            -
 -                    103                                   C_ghost            -
 -                    104                                   C_ghost            -
 -                    105                                   C_ghost            -
 -                    106                                   C_ghost            -
 -                    107                                   C_ghost            -
 -                    108                                   C_ghost            -
 -                    109                                   C_ghost            -
 -                    110                                   C_ghost            -
 -                    111                                   C_ghost            -
 -                    112                                   C_ghost            -
 -                    113                                   Na                 -
 -------------------------------------------------------------------------------

 *******************************************************************************
 *******************************************************************************
 **                                                                           **
 **     #####                         ##              ##                      **
 **    ##   ##            ##          ##              ##                      **
 **   ##     ##                       ##            ######                    **
 **   ##     ##  ##   ##  ##   #####  ##  ##   ####   ##    #####    #####    **
 **   ##     ##  ##   ##  ##  ##      ## ##   ##      ##   ##   ##  ##   ##   **
 **   ##  ## ##  ##   ##  ##  ##      ####     ###    ##   ######   ######    **
 **    ##  ###   ##   ##  ##  ##      ## ##      ##   ##   ##       ##        **
 **     #######   #####   ##   #####  ##  ##  ####    ##    #####   ##        **
 **           ##                                                    ##        **
 **                                                                           **
 **                                                ... make the atoms dance   **
 **                                                                           **
 **            Copyright (C) by CP2K developers group (2000-2022)             **
 **                      J. Chem. Phys. 152, 194103 (2020)                    **
 **                                                                           **
 *******************************************************************************


 TOTAL NUMBERS AND MAXIMUM NUMBERS

  Total number of            - Atomic kinds:                                   2
                             - Atoms:                                        113
                             - Shell sets:                                   113
                             - Shells:                                       565
                             - Primitive Cartesian functions:                567
                             - Cartesian basis functions:                   1577
                             - Spherical basis functions:                   1465

  Maximum angular momentum of- Orbital basis functions:                        2
                             - Local part of the GTH pseudopotential:          2
                             - Non-local part of the GTH pseudopotential:      1


 SCF PARAMETERS         Density guess:                                    ATOMIC
                        --------------------------------------------------------
                        max_scf:                                             100
                        max_scf_history:                                       0
                        max_diis:                                              4
                        --------------------------------------------------------
                        eps_scf:                                        3.00E-07
                        eps_scf_history:                                0.00E+00
                        eps_diis:                                       1.00E-01
                        eps_eigval:                                     1.00E-05
                        --------------------------------------------------------
                        level_shift [a.u.]:                             0.000000
                        added MOs                                       100  100
                        --------------------------------------------------------
                        Mixing method:                            BROYDEN_MIXING
                                                charge density mixing in g-space
                        --------------------------------------------------------
[...]

  outer SCF iter =    3 RMS gradient =   0.10E-04 energy =       -685.1678185245
     1 Broy./Diag. 0.10E+00   14.8     0.00005847      -685.1678121982  6.33E-06
     2 Broy./Diag. 0.10E+00    8.8     0.00005646      -685.1677551411  5.71E-05
     3 Broy./Diag. 0.10E+00    6.4     0.00000216      -685.1678262103 -7.11E-05
     4 Broy./Diag. 0.10E+00    6.6     0.00000279      -685.1678237249  2.49E-06
     5 Broy./Diag. 0.10E+00    4.4     0.00000117      -685.1678204492  3.28E-06
     6 Broy./Diag. 0.10E+00    4.4     0.00000249      -685.1678184734  1.98E-06
     7 Broy./Diag. 0.10E+00    4.4     0.00000867      -685.1678146158  3.86E-06
     8 Broy./Diag. 0.10E+00    4.4     0.00000135      -685.1678216557 -7.04E-06
     9 Broy./Diag. 0.10E+00    4.4     0.00000139      -685.1678194784  2.18E-06
    10 Broy./Diag. 0.10E+00    4.4     0.00000189      -685.1678172249  2.25E-06
    11 Broy./Diag. 0.10E+00    4.4     0.00000019      -685.1678148110  2.41E-06

  *** SCF run converged in    11 steps ***


  Electronic density on regular grids:       -457.0001216427       -0.0001216427
  Core density on regular grids:              456.9999999996       -0.0000000004
  Total charge density on r-space grids:       -0.0001216431
  Total charge density g-space grids:          -0.0001216431

  Overlap energy of the core charge distribution:               0.00001885768358
  Self energy of the core charge distribution:              -1590.12737799213005
  Core Hamiltonian energy:                                    498.24529686138271
  Hartree energy:                                             609.94190021856048
  Exchange-correlation energy:                               -203.08049762057590
  Dispersion energy:                                           -0.14487086994878
  Electronic entropic energy:                                  -0.00228426546250
  Fermi energy:                                                -0.06669530089335

  Total energy:                                              -685.16781481100975

  outer SCF iter =    4 RMS gradient =   0.19E-06 energy =       -685.1678148110
  outer SCF loop converged in   4 iterations or  311 steps


  Integrated absolute spin density  :                               0.0760479960
  WARNING: S**2 computation does not yet treat fractional occupied orbitals

 *** WARNING in qs_loc_utils.F:1500 :: User requested the calculation of ***
 *** the localized wavefunction but the section LOCALIZE was not         ***
 *** specified. Localization will not be performed!                      ***


 -------------------------------------------------------------------------------
 -                                                                             -
 -                                 BSSE RESULTS                                -
 -                                                                             -
 -                 CP-corrected Total energy:     -685.166323                  -
 -                                                                             -
 -                       1-body contribution:     -637.975642                  -
 -                       1-body contribution:      -47.167033                  -
 -                                                                             -
 -                       2-body contribution:       -0.023648                  -
 -                 BSSE-free interaction energy:       -0.023648               -
 -------------------------------------------------------------------------------

 -------------------------------------------------------------------------------
 -                                                                             -
 -                                DBCSR STATISTICS                             -
 -                                                                             -
 -------------------------------------------------------------------------------
 COUNTER                                    TOTAL       BLAS       SMM       ACC
 flops     9 x     9 x     8               178848     100.0%      0.0%      0.0%
 flops     9 x     9 x     9               486972     100.0%      0.0%      0.0%
 flops     9 x     9 x    68               837216     100.0%      0.0%      0.0%
 flops     9 x     9 x    72              3627504     100.0%      0.0%      0.0%
 flops     9 x     9 x    73              3677886     100.0%      0.0%      0.0%
 flops     9 x     9 x    32              4292352     100.0%      0.0%      0.0%
 flops     9 x     9 x    64              7236864     100.0%      0.0%      0.0%
 flops    13 x     9 x     8             14466816     100.0%      0.0%      0.0%
 flops     9 x    13 x     8             14466816     100.0%      0.0%      0.0%
 flops    13 x     9 x     9             16275168     100.0%      0.0%      0.0%
 flops     9 x    13 x     9             16275168     100.0%      0.0%      0.0%
 flops     9 x     9 x    96             21710592     100.0%      0.0%      0.0%
 flops    13 x     9 x    68             67721472     100.0%      0.0%      0.0%
 flops     9 x    13 x    68             67721472     100.0%      0.0%      0.0%
 flops    13 x     9 x    72            293424768     100.0%      0.0%      0.0%
 flops     9 x    13 x    72            293424768     100.0%      0.0%      0.0%
 flops    13 x     9 x    73            297500112     100.0%      0.0%      0.0%
 flops     9 x    13 x    73            297500112     100.0%      0.0%      0.0%
 flops    13 x     9 x    32            347203584     100.0%      0.0%      0.0%
 flops     9 x    13 x    32            347203584     100.0%      0.0%      0.0%
 flops    13 x     9 x    64            585381888     100.0%      0.0%      0.0%
 flops     9 x    13 x    64            585381888     100.0%      0.0%      0.0%
 flops    13 x     9 x    96           1756145664     100.0%      0.0%      0.0%
 flops     9 x    13 x    96           1756145664     100.0%      0.0%      0.0%
 flops    13 x    13 x     8           2361305856     100.0%      0.0%      0.0%
 flops    13 x    13 x     9           2656469088     100.0%      0.0%      0.0%
 flops    13 x    13 x    68          22107298304     100.0%      0.0%      0.0%
 flops    13 x    13 x    72          47893442688     100.0%      0.0%      0.0%
 flops    13 x    13 x    73          48558629392     100.0%      0.0%      0.0%
 flops    13 x    13 x    32          56671340544     100.0%      0.0%      0.0%
 flops    13 x    13 x    64         105950767104     100.0%      0.0%      0.0%
 flops    13 x    13 x    96         317852301312     100.0%      0.0%      0.0%
 flops inhomo. stacks                           0       0.0%      0.0%      0.0%
 flops total                       610.849841E+09     100.0%      0.0%      0.0%
 flops max/rank                     40.486342E+09     100.0%      0.0%      0.0%
 matmuls inhomo. stacks                         0       0.0%      0.0%      0.0%
 matmuls total                           27018044     100.0%      0.0%      0.0%
 number of processed stacks                 98564     100.0%      0.0%      0.0%
 average stack size                                   274.1       0.0       0.0
 marketing flops                   766.683513E+09
 -------------------------------------------------------------------------------
 # multiplications                           1246
 max memory usage/rank             901.935104E+06
 # max total images/rank                        1
 # max 3D layers                                1
 # MPI messages exchanged                  119616
 MPI messages size (bytes):
  total size                        19.849712E+09
  min size                           0.000000E+00
  max size                         286.464000E+03
  average size                     165.945281E+03
 MPI breakdown and total messages size (bytes):
             size <=      128               17640                        0
       128 < size <=     8192                1176                   762048
      8192 < size <=    32768                6624                164970720
     32768 < size <=   131072               19872               1863198720
    131072 < size <=  4194304               74304              17820756432
   4194304 < size <= 16777216                   0                        0
  16777216 < size                               0                        0
 -------------------------------------------------------------------------------
 -                                                                             -
 -                      DBCSR MESSAGE PASSING PERFORMANCE                      -
 -                                                                             -
 -------------------------------------------------------------------------------
 ROUTINE             CALLS      AVE VOLUME [Bytes]
 MP_Bcast               33                     12.
 MP_Allreduce         8815                      8.
 MP_Alltoall         34948                 238928.
 MP_ISend            19936                  67806.
 MP_IRecv            19936                  58662.
 -------------------------------------------------------------------------------

 -------------------------------------------------------------------------------
 -                                                                             -
 -                                DBM STATISTICS                               -
 -                                                                             -
 -------------------------------------------------------------------------------
    M  x    N  x    K                                          COUNT     PERCENT
 -------------------------------------------------------------------------------

 -------------------------------------------------------------------------------
 -                                                                             -
 -                                GRID STATISTICS                              -
 -                                                                             -
 -------------------------------------------------------------------------------
 LP    KERNEL             BACKEND                              COUNT     PERCENT
 4     collocate general  REF                               69340262      49.17%
 4     integrate general  REF                               68815950      48.79%
 3     collocate general  REF                                1382780       0.98%
 3     integrate general  REF                                1374314       0.97%
 2     collocate general  REF                                  57722       0.04%
 2     integrate general  REF                                  57330       0.04%
 0     collocate general  REF                                   5424       0.00%
 -------------------------------------------------------------------------------

 MEMORY| Estimated peak process memory [MiB]                                 861

 -------------------------------------------------------------------------------
 -                                                                             -
 -                         MESSAGE PASSING PERFORMANCE                         -
 -                                                                             -
 -------------------------------------------------------------------------------

 ROUTINE             CALLS      AVE VOLUME [Bytes]
 MP_Group               24
 MP_Bcast             2017                 476463.
 MP_Allreduce        12939                    401.
 MP_Sync              1466
 MP_Alltoall         15682               14653874.
 MP_SendRecv         71472                 355993.
 MP_ISendRecv        56070                 362400.
 MP_Wait             83647
 MP_comm_split         196
 MP_ISend            20056                2941774.
 MP_IRecv            20056                2941898.
 MP_Recv               462                 352754.
 -------------------------------------------------------------------------------


 -------------------------------------------------------------------------------
 -                                                                             -
 -                           R E F E R E N C E S                               -
 -                                                                             -
 -------------------------------------------------------------------------------
 
 CP2K version 2023.1, the CP2K developers group (2023).
 CP2K is freely available from https://www.cp2k.org/ .

 Kuehne,Thomas D.; Iannuzzi,Marcella; Del Ben,Mauro;
 Rybkin,Vladimir V.; Seewald,Patrick; Stein,Frederick; Laino,Teodoro;
 Khaliullin,Rustam Z.; Schuett,Ole; Schiffmann,Florian; Golze,Dorothea;
 Wilhelm,Jan; Chulkov,Sergey; Bani-Hashemian,Mohammad Hossein;
 Weber,Valery; Borstnik,Urban; Taillefumier,Mathieu;
 Jakobovits,Alice Shoshana; Lazzaro,Alfio; Pabst,Hans; Mueller,Tiziano;
 Schade,Robert; Guidon,Manuel; Andermatt,Samuel; Holmberg,Nico;
 Schenter,Gregory K.; Hehn,Anna; Bussy,Augustin; Belleflamme,Fabian;
 Tabacchi,Gloria; Gloess,Andreas; Lass,Michael; Bethune,Iain;
 Mundy,Christopher J.; Plessl,Christian; Watkins,Matt;
 VandeVondele,Joost; Krack,Matthias; Hutter,Juerg. 
 The Journal of Chemical Physics, 152 (19), (2020). 
 CP2K: An electronic structure and molecular dynamics software package -
 Quickstep: Efficient and accurate electronic structure calculations.
 https://doi.org/10.1063/5.0007045

 Goerigk, Lars; Hansen, Andreas; Bauer, Christoph; Ehrlich, Stephan;
 Najibi, Asim; Grimme, Stefan. , 19 (48), (2017). 
 A look at the density functional theory zoo with the advanced GMTKN55 database
 for general main group thermochemistry, kinetics and noncovalent interactions.
 https://doi.org/10.1039/C7CP04913G

 Schuett, Ole; Messmer, Peter; Hutter, Juerg; VandeVondele, Joost. 
 Electronic Structure Calculations on Graphics Processing Units, John
 Wiley & Sons, Ltd, 173-190 (2016). 
 GPU-Accelerated Sparse Matrix-Matrix Multiplication for
 Linear Scaling Density Functional Theory.
 https://doi.org/10.1002/9781118670712.ch8

 Borstnik, U; VandeVondele, J; Weber, V; Hutter, J. 
 PARALLEL COMPUTING, 40 (5-6), 47-58 (2014). 
 Sparse matrix multiplication: The distributed block-compressed sparse
 row library.
 https://doi.org/10.1016/j.parco.2014.03.012

 Hutter, J; Iannuzzi, M; Schiffmann, F; VandeVondele, J. 
 WIREs Comput Mol Sci., 4 (1), 15-25 (2014). 
 CP2K: atomistic simulations of condensed matter systems.
 https://doi.org/10.1002/wcms.1159

 Marek, A; Blum, V; Johanni, R; Havu, V; Lang, B; Auckenthaler, T;
 Heinecke, A; Bungartz, H; Lederer, H. 
 Journal of Physics: Condensed Matter, 26 (21), (2014). 
 The ELPA library: scalable parallel eigenvalue solutions for
 electronic structure
 theory and computational science.
 https://doi.org/10.1088/0953-8984/26/21/213201

 Grimme, S; Ehrlich, S; Goerigk, L. 
 JOURNAL OF COMPUTATIONAL CHEMISTRY, 32, 1456 (2011). 
 Effect of the damping function in dispersion corrected density functional theory.
 https://doi.org/10.1002/jcc.21759

 Grimme, S; Antony, J; Ehrlich, S; Krieg, H. 
 JOURNAL OF CHEMICAL PHYSICS, 132 (15), 154104 (2010). 
 A consistent and accurate ab initio parametrization of density
 functional dispersion correction (DFT-D) for the 94 elements H-Pu.
 https://doi.org/10.1063/1.3382344

 VandeVondele, J; Hutter, J. 
 JOURNAL OF CHEMICAL PHYSICS, 127 (11), 114105 (2007). 
 Gaussian basis sets for accurate calculations on molecular systems in
 gas and condensed phases.
 https://doi.org/10.1063/1.2770708

 Krack, M. 
 THEORETICAL CHEMISTRY ACCOUNTS, 114 (1-3), 145-152 (2005). 
 Pseudopotentials for H to Kr optimized for gradient-corrected
 exchange-correlation functionals.
 https://doi.org/10.1007/s00214-005-0655-y

 VandeVondele, J; Krack, M; Mohamed, F; Parrinello, M; Chassaing, T;
 Hutter, J. COMPUTER PHYSICS COMMUNICATIONS, 167 (2), 103-128 (2005). 
 QUICKSTEP: Fast and accurate density functional calculations using a
 mixed Gaussian and plane waves approach.
 https://doi.org/10.1016/j.cpc.2004.12.014

 Frigo, M; Johnson, SG. 
 PROCEEDINGS OF THE IEEE, 93 (2), 216-231 (2005). 
 The design and implementation of FFTW3.
 https://doi.org/10.1109/JPROC.2004.840301

 Hartwigsen, C; Goedecker, S; Hutter, J. 
 PHYSICAL REVIEW B, 58 (7), 3641-3662 (1998). 
 Relativistic separable dual-space Gaussian pseudopotentials from H to Rn.
 https://doi.org/10.1103/PhysRevB.58.3641

 Lippert, G; Hutter, J; Parrinello, M. 
 MOLECULAR PHYSICS, 92 (3), 477-487 (1997). 
 A hybrid Gaussian and plane wave density functional scheme.
 https://doi.org/10.1080/002689797170220

 Perdew, JP; Burke, K; Ernzerhof, M. 
 PHYSICAL REVIEW LETTERS, 77 (18), 3865-3868 (1996). 
 Generalized gradient approximation made simple.
 https://doi.org/10.1103/PhysRevLett.77.3865

 Goedecker, S; Teter, M; Hutter, J. 
 PHYSICAL REVIEW B, 54 (3), 1703-1710 (1996). 
 Separable dual-space Gaussian pseudopotentials.
 https://doi.org/10.1103/PhysRevB.54.1703


 -------------------------------------------------------------------------------
 -                                                                             -
 -                                T I M I N G                                  -
 -                                                                             -
 -------------------------------------------------------------------------------
 SUBROUTINE                       CALLS  ASD         SELF TIME        TOTAL TIME
                                MAXIMUM       AVERAGE  MAXIMUM  AVERAGE  MAXIMUM
 CP2K                                 1  1.0     1.37     1.47 48115.32 48115.33
 qs_energies                          5  2.0     0.00     0.00 48104.26 48104.31
 scf_env_do_scf                       5  3.0     0.00     0.00 48069.45 48069.93
 scf_env_do_scf_inner_loop          623  4.0     0.04     0.09 48069.40 48069.91
 qs_scf_new_mos                     623  5.0     0.03     0.10 42085.57 42086.97
 eigensolver                       1246  6.0     0.13     0.16 40845.91 40851.91
 cp_fm_diag_elpa                   1050  7.0     0.02     0.03 37129.06 37144.03
 cp_fm_diag_elpa_base              1050  8.0 37079.28 37092.38 37094.28 37097.91
 cp_fm_triangular_multiply         3738  7.0  3704.71  3729.37  3704.71  3729.37
 qs_ks_update_qs_env                623  5.0     0.01     0.01  2903.21  2904.59
 rebuild_ks_matrix                  623  6.0     0.01     0.01  2854.32  2855.16
 qs_ks_build_kohn_sham_matrix       623  7.0     0.17     0.21  2854.31  2855.16
 qs_rho_update_rho_low              628  5.0     0.01     0.01  2371.46  2372.96
 calculate_rho_elec                1256  6.0     4.39     5.32  2371.45  2372.96
 sum_up_and_integrate               623  8.0     7.43     8.00  2184.98  2185.88
 integrate_v_rspace                1246  9.0     0.07     0.12  2177.54  2178.83
 rs_pw_transfer                   10013  9.5     0.27     0.31  1621.10  1660.54
 density_rs2pw                     1256  7.0     0.11     0.16  1236.51  1273.65
 grid_collocate_task_list          1256  7.0  1078.30  1122.03  1078.30  1122.03
 grid_integrate_task_list          1246 10.0  1052.25  1089.95  1052.25  1089.95
 potential_pw2rs                   1246 10.0     0.30     0.34   995.34   998.17
 -------------------------------------------------------------------------------

 The number of warnings for this run is : 7
 
 -------------------------------------------------------------------------------
  **** **** ******  **  PROGRAM ENDED AT                 2025-07-11 02:57:11.685
 ***** ** ***  *** **   PROGRAM RAN ON                                sebnode130
 **    ****   ******    PROGRAM RAN BY                                    luehrs
 ***** **    ** ** **   PROGRAM PROCESS ID                               1119453
  **** **  *******  **  PROGRAM STOPPED IN /home/luehrs/PhD/Sodium_batteries/Sod
                                           ium-graphene-surface/Zig-Zag_1
