 DBCSR| Multiplication driver                                               XSMM
 DBCSR| Multrec recursion limit                                              512
 DBCSR| Multiplication stack size                                           1000
 DBCSR| Maximum elements for images                                    UNLIMITED
 DBCSR| Multiplicative factor virtual images                                   1
 DBCSR| Multiplication size stacks                                             3
 DBCSR| Number of 3D layers                                               SINGLE
 DBCSR| Use MPI memory allocation                                              T
 DBCSR| Use RMA algorithm                                                      F
 DBCSR| Use Communication thread                                               T
 DBCSR| Communication thread load                                             87


  **** **** ******  **  PROGRAM STARTED AT               2024-07-18 15:27:22.623
 ***** ** ***  *** **   PROGRAM STARTED ON                            sebnode114
 **    ****   ******    PROGRAM STARTED BY                                luehrs
 ***** **    ** ** **   PROGRAM PROCESS ID                                232954
  **** **  *******  **  PROGRAM STARTED IN /home/luehrs/PhD/Sodium_batteries/Sod
                                           ium-graphene-edge/Zig_zag_2/Hydrogen

 CP2K| version string:                    CP2K version 7.0 (Development Version)
 CP2K| source code revision number:                                             
 CP2K| cp2kflags: libint fftw3 libxc parallel mpi3 scalapack xsmm libderiv_max_a
 CP2K|            m1=8 libint_max_am=9 max_contr=4
 CP2K| is freely available from                            https://www.cp2k.org/
 CP2K| Program compiled at                         Sun Jun 24 14:37:16 CEST 2018
 CP2K| Program compiled on                                            sebstorage
 CP2K| Program compiled for                                Linux-x86-64-gfortran
 CP2K| Data directory path    /home/brehm/Software_Batchnode/2018/Source/cp2k_18
 CP2K| Input file name                                         input.zig-zag.inp

 GLOBAL| Force Environment number                                              1
 GLOBAL| Basis set file name                                      ./BASIS_MOLOPT
 GLOBAL| Potential file name                                    ./GTH_POTENTIALS
 GLOBAL| MM Potential file name                                     MM_POTENTIAL
 GLOBAL| Coordinate file name              graphene_hydrogen_zig-zag_relaxed.xyz
 GLOBAL| Method name                                                        CP2K
 GLOBAL| Project name                                      graphene_zig_zag_BSSE
 GLOBAL| Preferred FFT library                                             FFTW3
 GLOBAL| Preferred diagonalization lib.                                       SL
 GLOBAL| Run type                                                           BSSE
 GLOBAL| All-to-all communication in single precision                          F
 GLOBAL| FFTs using library dependent lengths                                  F
 GLOBAL| Global print level                                                  LOW
 GLOBAL| Total number of message passing processes                            16
 GLOBAL| Number of threads for this process                                    1
 GLOBAL| This output is from process                                           0
 GLOBAL| CPU model name :  Intel(R) Xeon(R) CPU E5-2620 v4 @ 2.10GHz

 MEMORY| system memory details [Kb]
 MEMORY|                        rank 0           min           max       average
 MEMORY| MemTotal             65835504      65835504      65835504      65835504
 MEMORY| MemFree              62395168      62395168      62395168      62395168
 MEMORY| Buffers                138644        138644        138644        138644
 MEMORY| Cached                1307156       1307156       1307156       1307156
 MEMORY| Slab                   465468        465468        465468        465468
 MEMORY| SReclaimable           318528        318528        318528        318528
 MEMORY| MemLikelyFree        64159496      64159496      64159496      64159496


 GENERATE|  Preliminary Number of Bonds generated:                             0
 GENERATE|  Achieved consistency in connectivity generation.

 *******************************************************************************
 *******************************************************************************
 **                                                                           **
 **     #####                         ##              ##                      **
 **    ##   ##            ##          ##              ##                      **
 **   ##     ##                       ##            ######                    **
 **   ##     ##  ##   ##  ##   #####  ##  ##   ####   ##    #####    #####    **
 **   ##     ##  ##   ##  ##  ##      ## ##   ##      ##   ##   ##  ##   ##   **
 **   ##  ## ##  ##   ##  ##  ##      ####     ###    ##   ######   ######    **
 **    ##  ###   ##   ##  ##  ##      ## ##      ##   ##   ##       ##        **
 **     #######   #####   ##   #####  ##  ##  ####    ##    #####   ##        **
 **           ##                                                    ##        **
 **                                                                           **
 **                                                ... make the atoms dance   **
 **                                                                           **
 **            Copyright (C) by CP2K developers group (2000 - 2018)           **
 **                                                                           **
 *******************************************************************************


 TOTAL NUMBERS AND MAXIMUM NUMBERS

  Total number of            - Atomic kinds:                                   3
                             - Atoms:                                        129
                             - Shell sets:                                   129
                             - Shells:                                       613
                             - Primitive Cartesian functions:                647
                             - Cartesian basis functions:                   1657
                             - Spherical basis functions:                   1545

  Maximum angular momentum of- Orbital basis functions:                        2
                             - Local part of the GTH pseudopotential:          2
                             - Non-local part of the GTH pseudopotential:      1


 SCF PARAMETERS         Density guess:                                    ATOMIC
                        --------------------------------------------------------
                        max_scf:                                             400
                        max_scf_history:                                       0
                        max_diis:                                              4
                        --------------------------------------------------------
                        eps_scf:                                        3.00E-07
                        eps_scf_history:                                0.00E+00
                        eps_diis:                                       1.00E-01
                        eps_eigval:                                     1.00E-05
                        --------------------------------------------------------
                        level_shift [a.u.]:                                 0.00
                        added MOs                                       100  100
                        --------------------------------------------------------
                        Mixing method:                            BROYDEN_MIXING
                                                charge density mixing in g-space
                        --------------------------------------------------------
                        Smear method:                                FERMI_DIRAC
                        Electronic temperature [K]:                        300.0
                        Electronic temperature [a.u.]:                  9.50E-04
                        Accuracy threshold:                             1.00E-10
                        --------------------------------------------------------
                        Outer loop SCF in use 
                        No variables optimised in outer loop
                        eps_scf                                         1.00E-06
                        max_scf                                              150
                        DIIS optimization
                        DIIS buffer length                                     3
                        step_size                                       5.00E-01

 -------------------------------------------------------------------------------
 -                                                                             -
 -  BSSE CALCULATION         FRAGMENT CONF: 10        FRAGMENT SUBCONF: 10     -
 -                           CHARGE =     0           MULTIPLICITY =     0     -
 -                                                                             -
 -                 ATOM INDEX                              ATOM NAME           -
 -                 ----------                              ---------           -
 -                      1                                   C                  -
 -                      2                                   C                  -
 -                      3                                   C                  -
 -                      4                                   C                  -
 -                      5                                   C                  -
 -                      6                                   C                  -
 -                      7                                   C                  -
 -                      8                                   C                  -
 -                      9                                   C                  -
 -                     10                                   C                  -
 -                     11                                   C                  -
 -                     12                                   C                  -
 -                     13                                   C                  -
 -                     14                                   C                  -
 -                     15                                   C                  -
 -                     16                                   C                  -
 -                     17                                   C                  -
 -                     18                                   C                  -
 -                     19                                   C                  -
 -                     20                                   C                  -
 -                     21                                   C                  -
 -                     22                                   C                  -
 -                     23                                   C                  -
 -                     24                                   C                  -
 -                     25                                   C                  -
 -                     26                                   C                  -
 -                     27                                   C                  -
 -                     28                                   C                  -
 -                     29                                   C                  -
 -                     30                                   C                  -
 -                     31                                   C                  -
 -                     32                                   C                  -
 -                     33                                   C                  -
 -                     34                                   C                  -
 -                     35                                   C                  -
 -                     36                                   C                  -
 -                     37                                   C                  -
 -                     38                                   C                  -
 -                     39                                   C                  -
 -                     40                                   C                  -
 -                     41                                   C                  -
 -                     42                                   C                  -
 -                     43                                   C                  -
 -                     44                                   C                  -
 -                     45                                   C                  -
 -                     46                                   C                  -
 -                     47                                   C                  -
 -                     48                                   C                  -
 -                     49                                   C                  -
 -                     50                                   C                  -
 -                     51                                   C                  -
 -                     52                                   C                  -
 -                     53                                   C                  -
 -                     54                                   C                  -
 -                     55                                   C                  -
 -                     56                                   C                  -
 -                     57                                   C                  -
 -                     58                                   C                  -
 -                     59                                   C                  -
 -                     60                                   C                  -
 -                     61                                   C                  -
 -                     62                                   C                  -
 -                     63                                   C                  -
 -                     64                                   C                  -
 -                     65                                   C                  -
 -                     66                                   C                  -
 -                     67                                   C                  -
 -                     68                                   C                  -
 -                     69                                   C                  -
 -                     70                                   C                  -
 -                     71                                   C                  -
 -                     72                                   C                  -
 -                     73                                   C                  -
 -                     74                                   C                  -
 -                     75                                   C                  -
 -                     76                                   C                  -
 -                     77                                   C                  -
 -                     78                                   C                  -
 -                     79                                   C                  -
 -                     80                                   C                  -
 -                     81                                   C                  -
 -                     82                                   C                  -
 -                     83                                   C                  -
 -                     84                                   C                  -
 -                     85                                   C                  -
 -                     86                                   C                  -
 -                     87                                   C                  -
 -                     88                                   C                  -
 -                     89                                   C                  -
 -                     90                                   C                  -
 -                     91                                   C                  -
 -                     92                                   C                  -
 -                     93                                   C                  -
 -                     94                                   C                  -
 -                     95                                   C                  -
 -                     96                                   C                  -
 -                     97                                   C                  -
 -                     98                                   C                  -
 -                     99                                   C                  -
 -                    100                                   C                  -
 -                    101                                   C                  -
 -                    102                                   C                  -
 -                    103                                   C                  -
 -                    104                                   C                  -
 -                    105                                   C                  -
 -                    106                                   C                  -
 -                    107                                   C                  -
 -                    108                                   C                  -
 -                    109                                   C                  -
 -                    110                                   C                  -
 -                    111                                   C                  -
 -                    112                                   C                  -
 -                    113                                   H                  -
 -                    114                                   H                  -
 -                    115                                   H                  -
 -                    116                                   H                  -
 -                    117                                   H                  -
 -                    118                                   H                  -
 -                    119                                   H                  -
 -                    120                                   H                  -
 -                    121                                   H                  -
 -                    122                                   H                  -
 -                    123                                   H                  -
 -                    124                                   H                  -
 -                    125                                   H                  -
 -                    126                                   H                  -
 -                    127                                   H                  -
 -                    128                                   H                  -
 -------------------------------------------------------------------------------

 *******************************************************************************
 *******************************************************************************
 **                                                                           **
 **     #####                         ##              ##                      **
 **    ##   ##            ##          ##              ##                      **
 **   ##     ##                       ##            ######                    **
 **   ##     ##  ##   ##  ##   #####  ##  ##   ####   ##    #####    #####    **
 **   ##     ##  ##   ##  ##  ##      ## ##   ##      ##   ##   ##  ##   ##   **
 **   ##  ## ##  ##   ##  ##  ##      ####     ###    ##   ######   ######    **
 **    ##  ###   ##   ##  ##  ##      ## ##      ##   ##   ##       ##        **
 **     #######   #####   ##   #####  ##  ##  ####    ##    #####   ##        **
 **           ##                                                    ##        **
 **                                                                           **
 **                                                ... make the atoms dance   **
 **                                                                           **
 **            Copyright (C) by CP2K developers group (2000 - 2018)           **
 **                                                                           **
 *******************************************************************************


 TOTAL NUMBERS AND MAXIMUM NUMBERS

  Total number of            - Atomic kinds:                                   2
                             - Atoms:                                        128
                             - Shell sets:                                   128
                             - Shells:                                       608
                             - Primitive Cartesian functions:                640
                             - Cartesian basis functions:                   1648
                             - Spherical basis functions:                   1536

  Maximum angular momentum of- Orbital basis functions:                        2
                             - Local part of the GTH pseudopotential:          2
                             - Non-local part of the GTH pseudopotential:      0


 SCF PARAMETERS         Density guess:                                    ATOMIC
                        --------------------------------------------------------
                        max_scf:                                             400
                        max_scf_history:                                       0
                        max_diis:                                              4
                        --------------------------------------------------------
                        eps_scf:                                        3.00E-07
                        eps_scf_history:                                0.00E+00
                        eps_diis:                                       1.00E-01
                        eps_eigval:                                     1.00E-05
                        --------------------------------------------------------
                        level_shift [a.u.]:                                 0.00
                        added MOs                                       100  100
                        --------------------------------------------------------
                        Mixing method:                            BROYDEN_MIXING
                                                charge density mixing in g-space
                        --------------------------------------------------------
                        Smear method:                                FERMI_DIRAC
                        Electronic temperature [K]:                        300.0
                        Electronic temperature [a.u.]:                  9.50E-04
                        Accuracy threshold:                             1.00E-10
                        --------------------------------------------------------
                        Outer loop SCF in use 
                        No variables optimised in outer loop
                        eps_scf                                         1.00E-06
                        max_scf                                              150
                        DIIS optimization
                        DIIS buffer length                                     3
                        step_size                                       5.00E-01

 Spin 1

 Number of electrons:                                                        232
 Number of occupied orbitals:                                                232
 Number of molecular orbitals:                                               332

 Spin 2

 Number of electrons:                                                        232
 Number of occupied orbitals:                                                232
 Number of molecular orbitals:                                               332

 Number of orbital functions:                                               1536
 Number of independent orbital functions:                                   1536

 Extrapolation method: initial_guess


 SCF WAVEFUNCTION OPTIMIZATION

  Step     Update method      Time    Convergence         Total energy    Change
  ------------------------------------------------------------------------------
     1 NoMix/Diag. 0.10E+00    5.7     0.45047013      -636.5010717413 -6.37E+02
     2 Broy./Diag. 0.10E+00   10.6     0.04855640      -609.9709732978  2.65E+01
     3 Broy./Diag. 0.10E+00   10.9     0.13512489      -624.1362663962 -1.42E+01
     4 Broy./Diag. 0.10E+00   10.9     7.78233998      -637.1381456745 -1.30E+01
     5 Broy./Diag. 0.10E+00   11.1     7.78231286      -572.7892626688  6.43E+01
     6 Broy./Diag. 0.10E+00   11.3     7.52223846      -640.7480371354 -6.80E+01
     7 Broy./Diag. 0.10E+00   11.5     7.52222853      -577.9620135027  6.28E+01
     8 Broy./Diag. 0.10E+00   11.7     7.58921938      -641.5569912581 -6.36E+01
     9 Broy./Diag. 0.10E+00   12.0     7.58921698      -595.3830526439  4.62E+01
    10 Broy./Diag. 0.10E+00   12.4     7.57664170      -641.3160668633 -4.59E+01
    11 Broy./Diag. 0.10E+00   12.4     7.57657280      -552.7612398193  8.86E+01
    12 Broy./Diag. 0.10E+00   12.3     6.57044601      -622.2235686366 -6.95E+01
    13 Broy./Diag. 0.10E+00   12.3     6.69637408      -642.1265327214 -1.99E+01
    14 Broy./Diag. 0.10E+00   12.4     6.69636911      -619.2753695318  2.29E+01
    15 Broy./Diag. 0.10E+00   12.3     7.36072191      -642.0774247606 -2.28E+01
    16 Broy./Diag. 0.10E+00   12.4     7.36432284      -592.3411812620  4.97E+01
    17 Broy./Diag. 0.10E+00   12.3     7.34223361      -641.9867677235 -4.96E+01
    18 Broy./Diag. 0.10E+00   12.4     7.34223313      -619.5433989031  2.24E+01
    19 Broy./Diag. 0.10E+00   12.3     0.20667969      -642.0505143531 -2.25E+01
    20 Broy./Diag. 0.10E+00   12.3     0.20644037      -641.7162408090  3.34E-01
    21 Broy./Diag. 0.10E+00   12.3     0.12660215      -642.4823430712 -7.66E-01
    22 Broy./Diag. 0.10E+00   12.3     0.12405857      -642.0316532004  4.51E-01
    23 Broy./Diag. 0.10E+00   12.3     0.10052228      -642.4960171792 -4.64E-01
    24 Broy./Diag. 0.10E+00   12.3     0.12964528      -642.3852678499  1.11E-01
    25 Broy./Diag. 0.10E+00   12.3     0.11491798      -642.3856682561 -4.00E-04
    26 Broy./Diag. 0.10E+00   12.3     0.06310808      -642.5744089706 -1.89E-01
    27 Broy./Diag. 0.10E+00   12.3     0.06279562      -642.5543245643  2.01E-02
    28 Broy./Diag. 0.10E+00   12.3     0.01046559      -642.7071265100 -1.53E-01
    29 Broy./Diag. 0.10E+00   12.3     0.00237806      -643.0121673234 -3.05E-01
    30 Broy./Diag. 0.10E+00   12.3     0.00638582      -643.1518829981 -1.40E-01
    31 Broy./Diag. 0.10E+00   12.4     0.00481291      -643.2777674971 -1.26E-01
    32 Broy./Diag. 0.10E+00   12.3     0.00431080      -643.3755482607 -9.78E-02
    33 Broy./Diag. 0.10E+00   12.3     0.00437617      -643.4843251416 -1.09E-01
    34 Broy./Diag. 0.10E+00   12.4     0.00223544      -643.5483795253 -6.41E-02
    35 Broy./Diag. 0.10E+00   12.4     0.00252583      -643.5699857383 -2.16E-02
    36 Broy./Diag. 0.10E+00   12.4     0.00148325      -643.6181490089 -4.82E-02
    37 Broy./Diag. 0.10E+00   12.4     0.00127423      -643.6533701019 -3.52E-02
    38 Broy./Diag. 0.10E+00   12.4     0.00194061      -643.6690276146 -1.57E-02
    39 Broy./Diag. 0.10E+00   12.4     0.00048107      -643.6932783800 -2.43E-02
    40 Broy./Diag. 0.10E+00   12.3     0.00122791      -643.7060983863 -1.28E-02
    41 Broy./Diag. 0.10E+00   12.3     0.00031887      -643.7221955475 -1.61E-02
    42 Broy./Diag. 0.10E+00   12.3     0.00062446      -643.7225013819 -3.06E-04
    43 Broy./Diag. 0.10E+00   12.3     0.00017554      -643.7329936948 -1.05E-02
    44 Broy./Diag. 0.10E+00   12.4     0.00022517      -643.7418210739 -8.83E-03
    45 Broy./Diag. 0.10E+00   12.4     0.00023711      -643.7537671389 -1.19E-02
    46 Broy./Diag. 0.10E+00   12.3     0.00011351      -643.7567207120 -2.95E-03
    47 Broy./Diag. 0.10E+00   12.4     0.00019148      -643.7573605663 -6.40E-04
    48 Broy./Diag. 0.10E+00   12.4     0.00006288      -643.7531748803  4.19E-03
    49 Broy./Diag. 0.10E+00   12.4     0.00012807      -643.7527104682  4.64E-04
    50 Broy./Diag. 0.10E+00   12.4     0.00007897      -643.7535680211 -8.58E-04
    51 Broy./Diag. 0.10E+00   12.5     0.00005568      -643.7539483919 -3.80E-04
    52 Broy./Diag. 0.10E+00   12.4     0.00007248      -643.7544687595 -5.20E-04
    53 Broy./Diag. 0.10E+00   12.4     0.00002299      -643.7550723437 -6.04E-04
    54 Broy./Diag. 0.10E+00   12.4     0.00005045      -643.7541630228  9.09E-04
    55 Broy./Diag. 0.10E+00   12.4     0.00003661      -643.7538863846  2.77E-04
    56 Broy./Diag. 0.10E+00   12.4     0.00002335      -643.7540366637 -1.50E-04
    57 Broy./Diag. 0.10E+00   12.4     0.00002332      -643.7546366435 -6.00E-04
    58 Broy./Diag. 0.10E+00   12.4     0.00002369      -643.7549585129 -3.22E-04
    59 Broy./Diag. 0.10E+00   12.4     0.00001439      -643.7550179232 -5.94E-05
    60 Broy./Diag. 0.10E+00   12.4     0.00001579      -643.7549543715  6.36E-05
    61 Broy./Diag. 0.10E+00   12.3     0.00002057      -643.7551020597 -1.48E-04
    62 Broy./Diag. 0.10E+00   12.4     0.00000855      -643.7551599067 -5.78E-05
    63 Broy./Diag. 0.10E+00   12.4     0.00000859      -643.7551115450  4.84E-05
    64 Broy./Diag. 0.10E+00   12.4     0.00000713      -643.7551284365 -1.69E-05
    65 Broy./Diag. 0.10E+00   12.4     0.00000295      -643.7552065474 -7.81E-05
    66 Broy./Diag. 0.10E+00   12.4     0.00000358      -643.7553143537 -1.08E-04
    67 Broy./Diag. 0.10E+00   12.4     0.00000311      -643.7554295744 -1.15E-04
    68 Broy./Diag. 0.10E+00   12.4     0.00000135      -643.7555273979 -9.78E-05
    69 Broy./Diag. 0.10E+00   12.4     0.00000291      -643.7556069307 -7.95E-05
    70 Broy./Diag. 0.10E+00   12.4     0.00000172      -643.7556777804 -7.08E-05
    71 Broy./Diag. 0.10E+00   12.5     0.00000223      -643.7557107953 -3.30E-05
    72 Broy./Diag. 0.10E+00   12.4     0.00000165      -643.7557478127 -3.70E-05
    73 Broy./Diag. 0.10E+00   12.4     0.00000095      -643.7557697791 -2.20E-05
    74 Broy./Diag. 0.10E+00   12.4     0.00000098      -643.7557791860 -9.41E-06
    75 Broy./Diag. 0.10E+00   12.4     0.00000106      -643.7557723474  6.84E-06
    76 Broy./Diag. 0.10E+00   12.4     0.00000100      -643.7557553968  1.70E-05
    77 Broy./Diag. 0.10E+00   12.4     0.00000060      -643.7557336115  2.18E-05
    78 Broy./Diag. 0.10E+00   12.4     0.00000090      -643.7557124223  2.12E-05
    79 Broy./Diag. 0.10E+00   12.4     0.00000043      -643.7556972624  1.52E-05
    80 Broy./Diag. 0.10E+00   12.4     0.00000050      -643.7556939867  3.28E-06
    81 Broy./Diag. 0.10E+00   12.4     0.00000069      -643.7556886493  5.34E-06
    82 Broy./Diag. 0.10E+00   12.4     0.00000016      -643.7556887851 -1.36E-07

  *** SCF run converged in    82 steps ***


  Electronic density on regular grids:       -463.9999999998        0.0000000002
  Core density on regular grids:              463.9999999996       -0.0000000004
  Total charge density on r-space grids:       -0.0000000003
  Total charge density g-space grids:          -0.0000000003

  Overlap energy of the core charge distribution:               0.00002384473555
  Self energy of the core charge distribution:              -1516.08847113961383
  Core Hamiltonian energy:                                    477.38400570393304
  Hartree energy:                                             593.13599818396392
  Exchange-correlation energy:                               -197.93727368995411
  Dispersion energy:                                           -0.24693397129903
  Electronic entropic energy:                                  -0.00303771744651
  Fermi energy:                                                -0.11226969463435

  Total energy:                                              -643.75568878508204

  outer SCF iter =    1 RMS gradient =   0.16E-06 energy =       -643.7556887851
  outer SCF loop converged in   1 iterations or   82 steps


  Integrated absolute spin density  :                               0.0000000000
  WARNING: S**2 computation does not yet treat fractional occupied orbitals

 *** WARNING in qs_loc_utils.F:1387 :: User requested the calculation of ***
 *** the localized wavefunction but the section LOCALIZE was not         ***
 *** specified. Localization will not be performed!                      ***


 -------------------------------------------------------------------------------
 -                                                                             -
 -  BSSE CALCULATION         FRAGMENT CONF: 01        FRAGMENT SUBCONF: 01     -
 -                           CHARGE =     0           MULTIPLICITY =     0     -
 -                                                                             -
 -                 ATOM INDEX                              ATOM NAME           -
 -                 ----------                              ---------           -
 -                    129                                   Na                 -
 -------------------------------------------------------------------------------

 *******************************************************************************
 *******************************************************************************
 **                                                                           **
 **     #####                         ##              ##                      **
 **    ##   ##            ##          ##              ##                      **
 **   ##     ##                       ##            ######                    **
 **   ##     ##  ##   ##  ##   #####  ##  ##   ####   ##    #####    #####    **
 **   ##     ##  ##   ##  ##  ##      ## ##   ##      ##   ##   ##  ##   ##   **
 **   ##  ## ##  ##   ##  ##  ##      ####     ###    ##   ######   ######    **
 **    ##  ###   ##   ##  ##  ##      ## ##      ##   ##   ##       ##        **
 **     #######   #####   ##   #####  ##  ##  ####    ##    #####   ##        **
 **           ##                                                    ##        **
 **                                                                           **
 **                                                ... make the atoms dance   **
 **                                                                           **
 **            Copyright (C) by CP2K developers group (2000 - 2018)           **
 **                                                                           **
 *******************************************************************************

 *** WARNING in qs_environment.F:1128 :: More added MOs requested for beta ***
 *** spin than available.                                                  ***


 *** WARNING in qs_environment.F:1142 :: More added MOs requested than ***
 *** available. The full set of unoccupied MOs will be used.           ***



 TOTAL NUMBERS AND MAXIMUM NUMBERS

  Total number of            - Atomic kinds:                                   1
                             - Atoms:                                          1
                             - Shell sets:                                     1
                             - Shells:                                         5
                             - Primitive Cartesian functions:                  7
                             - Cartesian basis functions:                      9
                             - Spherical basis functions:                      9

  Maximum angular momentum of- Orbital basis functions:                        1
                             - Local part of the GTH pseudopotential:          2
                             - Non-local part of the GTH pseudopotential:      1


 SCF PARAMETERS         Density guess:                                    ATOMIC
                        --------------------------------------------------------
                        max_scf:                                             400
                        max_scf_history:                                       0
                        max_diis:                                              4
                        --------------------------------------------------------
                        eps_scf:                                        3.00E-07
                        eps_scf_history:                                0.00E+00
                        eps_diis:                                       1.00E-01
                        eps_eigval:                                     1.00E-05
                        --------------------------------------------------------
                        level_shift [a.u.]:                                 0.00
                        added MOs                                         4    5
                        --------------------------------------------------------
                        Mixing method:                            BROYDEN_MIXING
                                                charge density mixing in g-space
                        --------------------------------------------------------
                        Smear method:                                FERMI_DIRAC
                        Electronic temperature [K]:                        300.0
                        Electronic temperature [a.u.]:                  9.50E-04
                        Accuracy threshold:                             1.00E-10
                        --------------------------------------------------------
                        Outer loop SCF in use 
                        No variables optimised in outer loop
                        eps_scf                                         1.00E-06
                        max_scf                                              150
                        DIIS optimization
                        DIIS buffer length                                     3
                        step_size                                       5.00E-01

 Spin 1

 Number of electrons:                                                          5
 Number of occupied orbitals:                                                  5
 Number of molecular orbitals:                                                 9

 Spin 2

 Number of electrons:                                                          4
 Number of occupied orbitals:                                                  4
 Number of molecular orbitals:                                                 9

 Number of orbital functions:                                                  9
 Number of independent orbital functions:                                      9

 Extrapolation method: initial_guess


 SCF WAVEFUNCTION OPTIMIZATION

  Step     Update method      Time    Convergence         Total energy    Change
  ------------------------------------------------------------------------------
     1 NoMix/Diag. 0.10E+00    3.3     0.36549373       -47.1717366794 -4.72E+01
     2 Broy./Diag. 0.10E+00    7.2     0.01371106       -47.1426842726  2.91E-02
     3 Broy./Diag. 0.10E+00    7.5     0.06764923       -47.1683843226 -2.57E-02
     4 Broy./Diag. 0.10E+00    7.6     0.00062084       -47.1503537873  1.80E-02
     5 Broy./Diag. 0.10E+00    7.7     0.00341434       -47.1623786308 -1.20E-02
     6 Broy./Diag. 0.10E+00    7.9     0.00092836       -47.1598698222  2.51E-03
     7 Broy./Diag. 0.10E+00    8.1     0.01151257       -47.1667036400 -6.83E-03
     8 Broy./Diag. 0.10E+00    8.4     0.00205032       -47.1771752713 -1.05E-02
     9 Broy./Diag. 0.10E+00    8.7     0.00329589       -47.1774292616 -2.54E-04
    10 Broy./Diag. 0.10E+00    9.0     0.00402354       -47.1745298625  2.90E-03
    11 Broy./Diag. 0.10E+00    9.0     0.00116833       -47.1786376971 -4.11E-03
    12 Broy./Diag. 0.10E+00    9.0     0.00181558       -47.1768215967  1.82E-03
    13 Broy./Diag. 0.10E+00    9.0     0.00116138       -47.1789802426 -2.16E-03
    14 Broy./Diag. 0.10E+00    8.9     0.00112875       -47.1736248985  5.36E-03
    15 Broy./Diag. 0.10E+00    9.0     0.00042002       -47.1733547132  2.70E-04
    16 Broy./Diag. 0.10E+00    9.0     0.00014146       -47.1747299754 -1.38E-03
    17 Broy./Diag. 0.10E+00    9.0     0.00042777       -47.1770606633 -2.33E-03
    18 Broy./Diag. 0.10E+00    9.0     0.00010727       -47.1765861345  4.75E-04
    19 Broy./Diag. 0.10E+00    9.0     0.00030999       -47.1650086593  1.16E-02
    20 Broy./Diag. 0.10E+00    9.0     0.00017487       -47.1614057531  3.60E-03
    21 Broy./Diag. 0.10E+00    8.9     0.00013814       -47.1637055668 -2.30E-03
    22 Broy./Diag. 0.10E+00    9.0     0.00004590       -47.1636537481  5.18E-05
    23 Broy./Diag. 0.10E+00    9.0     0.00025850       -47.1638792864 -2.26E-04
    24 Broy./Diag. 0.10E+00    9.0     0.00008023       -47.1658746755 -2.00E-03
    25 Broy./Diag. 0.10E+00    9.0     0.00010263       -47.1683624462 -2.49E-03
    26 Broy./Diag. 0.10E+00    9.0     0.00009490       -47.1675095935  8.53E-04
    27 Broy./Diag. 0.10E+00    9.0     0.00007202       -47.1659330509  1.58E-03
    28 Broy./Diag. 0.10E+00    9.0     0.00007205       -47.1654515754  4.81E-04
    29 Broy./Diag. 0.10E+00    9.0     0.00013119       -47.1641279516  1.32E-03
    30 Broy./Diag. 0.10E+00    9.0     0.00002313       -47.1631475201  9.80E-04
    31 Broy./Diag. 0.10E+00    8.9     0.00004850       -47.1632691342 -1.22E-04
    32 Broy./Diag. 0.10E+00    9.0     0.00010011       -47.1630161794  2.53E-04
    33 Broy./Diag. 0.10E+00    8.9     0.00001920       -47.1630378599 -2.17E-05
    34 Broy./Diag. 0.10E+00    8.9     0.00006144       -47.1628824141  1.55E-04
    35 Broy./Diag. 0.10E+00    8.9     0.00001690       -47.1626533681  2.29E-04
    36 Broy./Diag. 0.10E+00    8.9     0.00002723       -47.1625854693  6.79E-05
    37 Broy./Diag. 0.10E+00    8.9     0.00001077       -47.1625652860  2.02E-05
    38 Broy./Diag. 0.10E+00    8.9     0.00003026       -47.1626614177 -9.61E-05
    39 Broy./Diag. 0.10E+00    8.9     0.00002223       -47.1625453112  1.16E-04
    40 Broy./Diag. 0.10E+00    8.9     0.00000605       -47.1624930113  5.23E-05
    41 Broy./Diag. 0.10E+00    8.9     0.00000441       -47.1625465860 -5.36E-05
    42 Broy./Diag. 0.10E+00    8.9     0.00000222       -47.1625719655 -2.54E-05
    43 Broy./Diag. 0.10E+00    8.9     0.00000927       -47.1625702799  1.69E-06
    44 Broy./Diag. 0.10E+00    8.9     0.00000772       -47.1624549787  1.15E-04
    45 Broy./Diag. 0.10E+00    8.9     0.00000366       -47.1624663022 -1.13E-05
    46 Broy./Diag. 0.10E+00    8.9     0.00000477       -47.1624918789 -2.56E-05
    47 Broy./Diag. 0.10E+00    8.9     0.00000707       -47.1624803267  1.16E-05
    48 Broy./Diag. 0.10E+00    8.9     0.00000426       -47.1625009150 -2.06E-05
    49 Broy./Diag. 0.10E+00    8.9     0.00000474       -47.1624547423  4.62E-05
    50 Broy./Diag. 0.10E+00    8.9     0.00000109       -47.1624518921  2.85E-06
    51 Broy./Diag. 0.10E+00    8.9     0.00000190       -47.1624809602 -2.91E-05
    52 Broy./Diag. 0.10E+00    8.9     0.00000136       -47.1624801691  7.91E-07
    53 Broy./Diag. 0.10E+00    8.9     0.00000228       -47.1624805378 -3.69E-07
    54 Broy./Diag. 0.10E+00    8.9     0.00000157       -47.1624816825 -1.14E-06
    55 Broy./Diag. 0.10E+00    8.9     0.00000403       -47.1624795202  2.16E-06
    56 Broy./Diag. 0.10E+00    8.9     0.00000296       -47.1624766674  2.85E-06
    57 Broy./Diag. 0.10E+00    8.9     0.00000070       -47.1624746093  2.06E-06
    58 Broy./Diag. 0.10E+00    8.9     0.00000111       -47.1624737084  9.01E-07
    59 Broy./Diag. 0.10E+00    8.9     0.00000104       -47.1624787603 -5.05E-06
    60 Broy./Diag. 0.10E+00    8.9     0.00000394       -47.1624851967 -6.44E-06
    61 Broy./Diag. 0.10E+00    8.9     0.00000353       -47.1624968337 -1.16E-05
    62 Broy./Diag. 0.10E+00    8.8     0.00000288       -47.1625142904 -1.75E-05
    63 Broy./Diag. 0.10E+00    8.9     0.00000259       -47.1625218973 -7.61E-06
    64 Broy./Diag. 0.10E+00    8.8     0.00000135       -47.1625267678 -4.87E-06
    65 Broy./Diag. 0.10E+00    8.8     0.00000142       -47.1625210485  5.72E-06
    66 Broy./Diag. 0.10E+00    8.8     0.00000067       -47.1625297142 -8.67E-06
    67 Broy./Diag. 0.10E+00    8.8     0.00000113       -47.1625223884  7.33E-06
    68 Broy./Diag. 0.10E+00    8.8     0.00000113       -47.1625206966  1.69E-06
    69 Broy./Diag. 0.10E+00    8.8     0.00000135       -47.1625151655  5.53E-06
    70 Broy./Diag. 0.10E+00    8.8     0.00000109       -47.1625045601  1.06E-05
    71 Broy./Diag. 0.10E+00    8.8     0.00000136       -47.1624931166  1.14E-05
    72 Broy./Diag. 0.10E+00    8.8     0.00000072       -47.1624820363  1.11E-05
    73 Broy./Diag. 0.10E+00    8.8     0.00000082       -47.1624761637  5.87E-06
    74 Broy./Diag. 0.10E+00    8.8     0.00000068       -47.1624725034  3.66E-06
    75 Broy./Diag. 0.10E+00    8.8     0.00000104       -47.1624734779 -9.74E-07
    76 Broy./Diag. 0.10E+00    8.8     0.00000098       -47.1624778688 -4.39E-06
    77 Broy./Diag. 0.10E+00    8.8     0.00000037       -47.1624751530  2.72E-06
    78 Broy./Diag. 0.10E+00    8.8     0.00000046       -47.1624780967 -2.94E-06
    79 Broy./Diag. 0.10E+00    8.8     0.00000042       -47.1624784743 -3.78E-07
    80 Broy./Diag. 0.10E+00    8.8     0.00000180       -47.1624747442  3.73E-06
    81 Broy./Diag. 0.10E+00    8.8     0.00000076       -47.1624781513 -3.41E-06
    82 Broy./Diag. 0.10E+00    8.8     0.00000132       -47.1624738674  4.28E-06
    83 Broy./Diag. 0.10E+00    8.8     0.00000257       -47.1624677683  6.10E-06
    84 Broy./Diag. 0.10E+00    8.8     0.00000117       -47.1624704808 -2.71E-06
    85 Broy./Diag. 0.10E+00    8.8     0.00000120       -47.1624713406 -8.60E-07
    86 Broy./Diag. 0.10E+00    8.8     0.00000047       -47.1624740128 -2.67E-06
    87 Broy./Diag. 0.10E+00    8.8     0.00000038       -47.1624754914 -1.48E-06
    88 Broy./Diag. 0.10E+00    8.8     0.00000116       -47.1624765316 -1.04E-06
    89 Broy./Diag. 0.10E+00    8.8     0.00000092       -47.1624742777  2.25E-06
    90 Broy./Diag. 0.10E+00    8.8     0.00000145       -47.1624691576  5.12E-06
    91 Broy./Diag. 0.10E+00    8.8     0.00000059       -47.1624746792 -5.52E-06
    92 Broy./Diag. 0.10E+00    8.8     0.00000031       -47.1624723180  2.36E-06
    93 Broy./Diag. 0.10E+00    8.8     0.00000032       -47.1624727528 -4.35E-07
    94 Broy./Diag. 0.10E+00    8.8     0.00000038       -47.1624733390 -5.86E-07
    95 Broy./Diag. 0.10E+00    8.8     0.00000022       -47.1624733136  2.53E-08

  *** SCF run converged in    95 steps ***


  Electronic density on regular grids:         -9.0000016778       -0.0000016778
  Core density on regular grids:                9.0000000000       -0.0000000000
  Total charge density on r-space grids:       -0.0000016778
  Total charge density g-space grids:          -0.0000016778

  Overlap energy of the core charge distribution:               0.00000000000000
  Self energy of the core charge distribution:                -96.60649019442629
  Core Hamiltonian energy:                                     29.74874912221651
  Hartree energy:                                              26.74643759792389
  Exchange-correlation energy:                                 -7.05116853315070
  Dispersion energy:                                           -0.00000130538029
  Electronic entropic energy:                                  -0.00000000082798
  Fermi energy:                                                -0.08402726344770

  Total energy:                                               -47.16247331364324

  outer SCF iter =    1 RMS gradient =   0.22E-06 energy =        -47.1624733136
  outer SCF loop converged in   1 iterations or   95 steps


  Integrated absolute spin density  :                               1.0000133294
  WARNING: S**2 computation does not yet treat fractional occupied orbitals

 *** WARNING in qs_loc_utils.F:1387 :: User requested the calculation of ***
 *** the localized wavefunction but the section LOCALIZE was not         ***
 *** specified. Localization will not be performed!                      ***


 -------------------------------------------------------------------------------
 -                                                                             -
 -  BSSE CALCULATION         FRAGMENT CONF: 11        FRAGMENT SUBCONF: 10     -
 -                           CHARGE =     0           MULTIPLICITY =     0     -
 -                                                                             -
 -                 ATOM INDEX                              ATOM NAME           -
 -                 ----------                              ---------           -
 -                      1                                   C                  -
 -                      2                                   C                  -
 -                      3                                   C                  -
 -                      4                                   C                  -
 -                      5                                   C                  -
 -                      6                                   C                  -
 -                      7                                   C                  -
 -                      8                                   C                  -
 -                      9                                   C                  -
 -                     10                                   C                  -
 -                     11                                   C                  -
 -                     12                                   C                  -
 -                     13                                   C                  -
 -                     14                                   C                  -
 -                     15                                   C                  -
 -                     16                                   C                  -
 -                     17                                   C                  -
 -                     18                                   C                  -
 -                     19                                   C                  -
 -                     20                                   C                  -
 -                     21                                   C                  -
 -                     22                                   C                  -
 -                     23                                   C                  -
 -                     24                                   C                  -
 -                     25                                   C                  -
 -                     26                                   C                  -
 -                     27                                   C                  -
 -                     28                                   C                  -
 -                     29                                   C                  -
 -                     30                                   C                  -
 -                     31                                   C                  -
 -                     32                                   C                  -
 -                     33                                   C                  -
 -                     34                                   C                  -
 -                     35                                   C                  -
 -                     36                                   C                  -
 -                     37                                   C                  -
 -                     38                                   C                  -
 -                     39                                   C                  -
 -                     40                                   C                  -
 -                     41                                   C                  -
 -                     42                                   C                  -
 -                     43                                   C                  -
 -                     44                                   C                  -
 -                     45                                   C                  -
 -                     46                                   C                  -
 -                     47                                   C                  -
 -                     48                                   C                  -
 -                     49                                   C                  -
 -                     50                                   C                  -
 -                     51                                   C                  -
 -                     52                                   C                  -
 -                     53                                   C                  -
 -                     54                                   C                  -
 -                     55                                   C                  -
 -                     56                                   C                  -
 -                     57                                   C                  -
 -                     58                                   C                  -
 -                     59                                   C                  -
 -                     60                                   C                  -
 -                     61                                   C                  -
 -                     62                                   C                  -
 -                     63                                   C                  -
 -                     64                                   C                  -
 -                     65                                   C                  -
 -                     66                                   C                  -
 -                     67                                   C                  -
 -                     68                                   C                  -
 -                     69                                   C                  -
 -                     70                                   C                  -
 -                     71                                   C                  -
 -                     72                                   C                  -
 -                     73                                   C                  -
 -                     74                                   C                  -
 -                     75                                   C                  -
 -                     76                                   C                  -
 -                     77                                   C                  -
 -                     78                                   C                  -
 -                     79                                   C                  -
 -                     80                                   C                  -
 -                     81                                   C                  -
 -                     82                                   C                  -
 -                     83                                   C                  -
 -                     84                                   C                  -
 -                     85                                   C                  -
 -                     86                                   C                  -
 -                     87                                   C                  -
 -                     88                                   C                  -
 -                     89                                   C                  -
 -                     90                                   C                  -
 -                     91                                   C                  -
 -                     92                                   C                  -
 -                     93                                   C                  -
 -                     94                                   C                  -
 -                     95                                   C                  -
 -                     96                                   C                  -
 -                     97                                   C                  -
 -                     98                                   C                  -
 -                     99                                   C                  -
 -                    100                                   C                  -
 -                    101                                   C                  -
 -                    102                                   C                  -
 -                    103                                   C                  -
 -                    104                                   C                  -
 -                    105                                   C                  -
 -                    106                                   C                  -
 -                    107                                   C                  -
 -                    108                                   C                  -
 -                    109                                   C                  -
 -                    110                                   C                  -
 -                    111                                   C                  -
 -                    112                                   C                  -
 -                    113                                   H                  -
 -                    114                                   H                  -
 -                    115                                   H                  -
 -                    116                                   H                  -
 -                    117                                   H                  -
 -                    118                                   H                  -
 -                    119                                   H                  -
 -                    120                                   H                  -
 -                    121                                   H                  -
 -                    122                                   H                  -
 -                    123                                   H                  -
 -                    124                                   H                  -
 -                    125                                   H                  -
 -                    126                                   H                  -
 -                    127                                   H                  -
 -                    128                                   H                  -
 -                    129                                   Na_ghost           -
 -------------------------------------------------------------------------------

 *******************************************************************************
 *******************************************************************************
 **                                                                           **
 **     #####                         ##              ##                      **
 **    ##   ##            ##          ##              ##                      **
 **   ##     ##                       ##            ######                    **
 **   ##     ##  ##   ##  ##   #####  ##  ##   ####   ##    #####    #####    **
 **   ##     ##  ##   ##  ##  ##      ## ##   ##      ##   ##   ##  ##   ##   **
 **   ##  ## ##  ##   ##  ##  ##      ####     ###    ##   ######   ######    **
 **    ##  ###   ##   ##  ##  ##      ## ##      ##   ##   ##       ##        **
 **     #######   #####   ##   #####  ##  ##  ####    ##    #####   ##        **
 **           ##                                                    ##        **
 **                                                                           **
 **                                                ... make the atoms dance   **
 **                                                                           **
 **            Copyright (C) by CP2K developers group (2000 - 2018)           **
 **                                                                           **
 *******************************************************************************


 TOTAL NUMBERS AND MAXIMUM NUMBERS

  Total number of            - Atomic kinds:                                   3
                             - Atoms:                                        129
                             - Shell sets:                                   129
                             - Shells:                                       613
                             - Primitive Cartesian functions:                647
                             - Cartesian basis functions:                   1657
                             - Spherical basis functions:                   1545

  Maximum angular momentum of- Orbital basis functions:                        2
                             - Local part of the GTH pseudopotential:          2
                             - Non-local part of the GTH pseudopotential:      0


 SCF PARAMETERS         Density guess:                                    ATOMIC
                        --------------------------------------------------------
                        max_scf:                                             400
                        max_scf_history:                                       0
                        max_diis:                                              4
                        --------------------------------------------------------
                        eps_scf:                                        3.00E-07
                        eps_scf_history:                                0.00E+00
                        eps_diis:                                       1.00E-01
                        eps_eigval:                                     1.00E-05
                        --------------------------------------------------------
                        level_shift [a.u.]:                                 0.00
                        added MOs                                       100  100
                        --------------------------------------------------------
                        Mixing method:                            BROYDEN_MIXING
                                                charge density mixing in g-space
                        --------------------------------------------------------
                        Smear method:                                FERMI_DIRAC
                        Electronic temperature [K]:                        300.0
                        Electronic temperature [a.u.]:                  9.50E-04
                        Accuracy threshold:                             1.00E-10
                        --------------------------------------------------------
                        Outer loop SCF in use 
                        No variables optimised in outer loop
                        eps_scf                                         1.00E-06
                        max_scf                                              150
                        DIIS optimization
                        DIIS buffer length                                     3
                        step_size                                       5.00E-01

 Spin 1

 Number of electrons:                                                        232
 Number of occupied orbitals:                                                232
 Number of molecular orbitals:                                               332

 Spin 2

 Number of electrons:                                                        232
 Number of occupied orbitals:                                                232
 Number of molecular orbitals:                                               332

 Number of orbital functions:                                               1545
 Number of independent orbital functions:                                   1545

 Extrapolation method: initial_guess


 SCF WAVEFUNCTION OPTIMIZATION

  Step     Update method      Time    Convergence         Total energy    Change
  ------------------------------------------------------------------------------
     1 NoMix/Diag. 0.10E+00    5.6     0.45047193      -636.5010717413 -6.37E+02
     2 Broy./Diag. 0.10E+00   10.6     0.04854617      -609.9718310752  2.65E+01
     3 Broy./Diag. 0.10E+00   10.8     0.13510073      -624.1409122785 -1.42E+01
     4 Broy./Diag. 0.10E+00   10.9     7.78203598      -637.1444241091 -1.30E+01
     5 Broy./Diag. 0.10E+00   11.1     7.78200876      -572.0252458178  6.51E+01
     6 Broy./Diag. 0.10E+00   11.3     7.52609668      -640.8218735510 -6.88E+01
     7 Broy./Diag. 0.10E+00   11.5     7.52608655      -576.0930252903  6.47E+01
     8 Broy./Diag. 0.10E+00   11.7     7.58869991      -641.5549004591 -6.55E+01
     9 Broy./Diag. 0.10E+00   12.0     7.58869772      -596.3561633453  4.52E+01
    10 Broy./Diag. 0.10E+00   12.3     7.57624963      -641.3002252735 -4.49E+01
    11 Broy./Diag. 0.10E+00   12.3     7.58198559      -553.1976306632  8.81E+01
    12 Broy./Diag. 0.10E+00   12.3     7.63283709      -618.8783082666 -6.57E+01
    13 Broy./Diag. 0.10E+00   12.4     6.74130348      -642.0943587708 -2.32E+01
    14 Broy./Diag. 0.10E+00   12.3     6.74129852      -619.4184266974  2.27E+01
    15 Broy./Diag. 0.10E+00   12.4     7.37413712      -642.0503278800 -2.26E+01
    16 Broy./Diag. 0.10E+00   12.3     7.37790487      -589.8818330937  5.22E+01
    17 Broy./Diag. 0.10E+00   12.4     7.37366667      -642.0305597612 -5.21E+01
    18 Broy./Diag. 0.10E+00   12.4     7.37366614      -619.4952310363  2.25E+01
    19 Broy./Diag. 0.10E+00   12.3     0.17852431      -641.8186957822 -2.23E+01
    20 Broy./Diag. 0.10E+00   12.3     0.19278491      -642.1957556093 -3.77E-01
    21 Broy./Diag. 0.10E+00   12.4     0.19253864      -641.5537625287  6.42E-01
    22 Broy./Diag. 0.10E+00   12.4     0.16961229      -642.5282526307 -9.74E-01
    23 Broy./Diag. 0.10E+00   12.4     0.14834449      -642.0372150066  4.91E-01
    24 Broy./Diag. 0.10E+00   12.4     0.03058819      -642.5185189765 -4.81E-01
    25 Broy./Diag. 0.10E+00   12.3     0.05884930      -642.5601387893 -4.16E-02
    26 Broy./Diag. 0.10E+00   12.3     0.05846292      -642.5011636727  5.90E-02
    27 Broy./Diag. 0.10E+00   12.4     0.01659242      -642.6828303964 -1.82E-01
    28 Broy./Diag. 0.10E+00   12.4     0.00589207      -642.9359690259 -2.53E-01
    29 Broy./Diag. 0.10E+00   12.4     0.00528289      -643.1338549071 -1.98E-01
    30 Broy./Diag. 0.10E+00   12.4     0.00691762      -643.1978683103 -6.40E-02
    31 Broy./Diag. 0.10E+00   12.4     0.00274933      -643.3206997315 -1.23E-01
    32 Broy./Diag. 0.10E+00   12.4     0.00442155      -643.4157996176 -9.51E-02
    33 Broy./Diag. 0.10E+00   12.4     0.00870721      -643.5268718745 -1.11E-01
    34 Broy./Diag. 0.10E+00   12.4     0.00617811      -643.5671190368 -4.02E-02
    35 Broy./Diag. 0.10E+00   12.4     0.00308457      -643.5786930631 -1.16E-02
    36 Broy./Diag. 0.10E+00   12.4     0.00083689      -643.6382020897 -5.95E-02
    37 Broy./Diag. 0.10E+00   12.4     0.00136848      -643.6710792301 -3.29E-02
    38 Broy./Diag. 0.10E+00   12.4     0.00025641      -643.6971745157 -2.61E-02
    39 Broy./Diag. 0.10E+00   12.4     0.00132083      -643.7060337692 -8.86E-03
    40 Broy./Diag. 0.10E+00   12.4     0.00028293      -643.7232506283 -1.72E-02
    41 Broy./Diag. 0.10E+00   12.4     0.00054642      -643.7256136343 -2.36E-03
    42 Broy./Diag. 0.10E+00   12.4     0.00026435      -643.7316462904 -6.03E-03
    43 Broy./Diag. 0.10E+00   12.4     0.00033641      -643.7328318101 -1.19E-03
    44 Broy./Diag. 0.10E+00   12.4     0.00016757      -643.7345344322 -1.70E-03
    45 Broy./Diag. 0.10E+00   12.4     0.00028475      -643.7371099258 -2.58E-03
    46 Broy./Diag. 0.10E+00   12.4     0.00010731      -643.7421619714 -5.05E-03
    47 Broy./Diag. 0.10E+00   12.4     0.00016516      -643.7485675151 -6.41E-03
    48 Broy./Diag. 0.10E+00   12.4     0.00005075      -643.7575542203 -8.99E-03
    49 Broy./Diag. 0.10E+00   12.5     0.00007743      -643.7567122438  8.42E-04
    50 Broy./Diag. 0.10E+00   12.5     0.00008234      -643.7554366990  1.28E-03
    51 Broy./Diag. 0.10E+00   12.4     0.00009929      -643.7556294500 -1.93E-04
    52 Broy./Diag. 0.10E+00   12.4     0.00004331      -643.7561168144 -4.87E-04
    53 Broy./Diag. 0.10E+00   12.4     0.00003145      -643.7551597127  9.57E-04
    54 Broy./Diag. 0.10E+00   12.4     0.00002900      -643.7542996979  8.60E-04
    55 Broy./Diag. 0.10E+00   12.4     0.00003029      -643.7544302581 -1.31E-04
    56 Broy./Diag. 0.10E+00   12.4     0.00005707      -643.7548306411 -4.00E-04
    57 Broy./Diag. 0.10E+00   12.4     0.00000894      -643.7550702198 -2.40E-04
    58 Broy./Diag. 0.10E+00   12.4     0.00002884      -643.7550809359 -1.07E-05
    59 Broy./Diag. 0.10E+00   12.4     0.00001068      -643.7553347020 -2.54E-04
    60 Broy./Diag. 0.10E+00   12.4     0.00000679      -643.7556936099 -3.59E-04
    61 Broy./Diag. 0.10E+00   12.4     0.00001605      -643.7558949050 -2.01E-04
    62 Broy./Diag. 0.10E+00   12.4     0.00000482      -643.7560587050 -1.64E-04
    63 Broy./Diag. 0.10E+00   12.4     0.00000935      -643.7561882814 -1.30E-04
    64 Broy./Diag. 0.10E+00   12.4     0.00000833      -643.7563321161 -1.44E-04
    65 Broy./Diag. 0.10E+00   12.4     0.00000430      -643.7563195315  1.26E-05
    66 Broy./Diag. 0.10E+00   12.4     0.00000359      -643.7563040433  1.55E-05
    67 Broy./Diag. 0.10E+00   12.4     0.00000525      -643.7563198134 -1.58E-05
    68 Broy./Diag. 0.10E+00   12.4     0.00000438      -643.7563405650 -2.08E-05
    69 Broy./Diag. 0.10E+00   12.4     0.00000307      -643.7563091465  3.14E-05
    70 Broy./Diag. 0.10E+00   12.4     0.00000182      -643.7562682298  4.09E-05
    71 Broy./Diag. 0.10E+00   12.5     0.00000152      -643.7562447533  2.35E-05
    72 Broy./Diag. 0.10E+00   12.4     0.00000111      -643.7562317955  1.30E-05
    73 Broy./Diag. 0.10E+00   12.4     0.00000136      -643.7561969588  3.48E-05
    74 Broy./Diag. 0.10E+00   12.4     0.00000118      -643.7561572982  3.97E-05
    75 Broy./Diag. 0.10E+00   12.4     0.00000063      -643.7561568932  4.05E-07
    76 Broy./Diag. 0.10E+00   12.5     0.00000086      -643.7561643830 -7.49E-06
    77 Broy./Diag. 0.10E+00   12.5     0.00000053      -643.7561643307  5.23E-08
    78 Broy./Diag. 0.10E+00   12.4     0.00000056      -643.7561644564 -1.26E-07
    79 Broy./Diag. 0.10E+00   12.4     0.00000036      -643.7561706672 -6.21E-06
    80 Broy./Diag. 0.10E+00   12.7     0.00000042      -643.7561801322 -9.46E-06
    81 Broy./Diag. 0.10E+00   12.4     0.00000011      -643.7561858661 -5.73E-06

  *** SCF run converged in    81 steps ***


  Electronic density on regular grids:       -463.9999999998        0.0000000002
  Core density on regular grids:              463.9999999996       -0.0000000004
  Total charge density on r-space grids:       -0.0000000003
  Total charge density g-space grids:          -0.0000000003

  Overlap energy of the core charge distribution:               0.00002384473555
  Self energy of the core charge distribution:              -1516.08847113961383
  Core Hamiltonian energy:                                    477.37855471680240
  Hartree energy:                                             593.13908926078670
  Exchange-correlation energy:                               -197.93541095772736
  Dispersion energy:                                           -0.24693397129903
  Electronic entropic energy:                                  -0.00303762003596
  Fermi energy:                                                -0.11233896577677

  Total energy:                                              -643.75618586609528

  outer SCF iter =    1 RMS gradient =   0.11E-06 energy =       -643.7561858661
  outer SCF loop converged in   1 iterations or   81 steps


  Integrated absolute spin density  :                               0.0000000000
  WARNING: S**2 computation does not yet treat fractional occupied orbitals

 *** WARNING in qs_loc_utils.F:1387 :: User requested the calculation of ***
 *** the localized wavefunction but the section LOCALIZE was not         ***
 *** specified. Localization will not be performed!                      ***


 -------------------------------------------------------------------------------
 -                                                                             -
 -  BSSE CALCULATION         FRAGMENT CONF: 11        FRAGMENT SUBCONF: 01     -
 -                           CHARGE =     0           MULTIPLICITY =     0     -
 -                                                                             -
 -                 ATOM INDEX                              ATOM NAME           -
 -                 ----------                              ---------           -
 -                      1                                   C_ghost            -
 -                      2                                   C_ghost            -
 -                      3                                   C_ghost            -
 -                      4                                   C_ghost            -
 -                      5                                   C_ghost            -
 -                      6                                   C_ghost            -
 -                      7                                   C_ghost            -
 -                      8                                   C_ghost            -
 -                      9                                   C_ghost            -
 -                     10                                   C_ghost            -
 -                     11                                   C_ghost            -
 -                     12                                   C_ghost            -
 -                     13                                   C_ghost            -
 -                     14                                   C_ghost            -
 -                     15                                   C_ghost            -
 -                     16                                   C_ghost            -
 -                     17                                   C_ghost            -
 -                     18                                   C_ghost            -
 -                     19                                   C_ghost            -
 -                     20                                   C_ghost            -
 -                     21                                   C_ghost            -
 -                     22                                   C_ghost            -
 -                     23                                   C_ghost            -
 -                     24                                   C_ghost            -
 -                     25                                   C_ghost            -
 -                     26                                   C_ghost            -
 -                     27                                   C_ghost            -
 -                     28                                   C_ghost            -
 -                     29                                   C_ghost            -
 -                     30                                   C_ghost            -
 -                     31                                   C_ghost            -
 -                     32                                   C_ghost            -
 -                     33                                   C_ghost            -
 -                     34                                   C_ghost            -
 -                     35                                   C_ghost            -
 -                     36                                   C_ghost            -
 -                     37                                   C_ghost            -
 -                     38                                   C_ghost            -
 -                     39                                   C_ghost            -
 -                     40                                   C_ghost            -
 -                     41                                   C_ghost            -
 -                     42                                   C_ghost            -
 -                     43                                   C_ghost            -
 -                     44                                   C_ghost            -
 -                     45                                   C_ghost            -
 -                     46                                   C_ghost            -
 -                     47                                   C_ghost            -
 -                     48                                   C_ghost            -
 -                     49                                   C_ghost            -
 -                     50                                   C_ghost            -
 -                     51                                   C_ghost            -
 -                     52                                   C_ghost            -
 -                     53                                   C_ghost            -
 -                     54                                   C_ghost            -
 -                     55                                   C_ghost            -
 -                     56                                   C_ghost            -
 -                     57                                   C_ghost            -
 -                     58                                   C_ghost            -
 -                     59                                   C_ghost            -
 -                     60                                   C_ghost            -
 -                     61                                   C_ghost            -
 -                     62                                   C_ghost            -
 -                     63                                   C_ghost            -
 -                     64                                   C_ghost            -
 -                     65                                   C_ghost            -
[...]
  Total charge density on r-space grids:       -0.0000016835
  Total charge density g-space grids:          -0.0000016835

  Overlap energy of the core charge distribution:               0.00002384473555
  Self energy of the core charge distribution:              -1612.69496133404004
  Core Hamiltonian energy:                                    507.32218794907635
  Hartree energy:                                             619.79952663861695
  Exchange-correlation energy:                               -205.11313519808809
  Dispersion energy:                                           -0.25597850731717
  Electronic entropic energy:                                  -0.00259117511949
  Fermi energy:                                                -0.10096511250801

  Total energy:                                              -690.94492778193921

  outer SCF iter =    5 RMS gradient =   0.16E-06 energy =       -690.9449277819
  outer SCF loop converged in   5 iterations or 1824 steps


  Integrated absolute spin density  :                               0.0010791460
  WARNING: S**2 computation does not yet treat fractional occupied orbitals

 *** WARNING in qs_loc_utils.F:1387 :: User requested the calculation of ***
 *** the localized wavefunction but the section LOCALIZE was not         ***
 *** specified. Localization will not be performed!                      ***


 -------------------------------------------------------------------------------
 -                                                                             -
 -                                 BSSE RESULTS                                -
 -                                                                             -
 -                 CP-corrected Total energy:     -690.944156                  -
 -                                                                             -
 -                       1-body contribution:     -643.755689                  -
 -                       1-body contribution:      -47.162473                  -
 -                                                                             -
 -                       2-body contribution:       -0.025994                  -
 -                 BSSE-free interaction energy:       -0.025994               -
 -------------------------------------------------------------------------------

 -------------------------------------------------------------------------------
 -                                                                             -
 -                                DBCSR STATISTICS                             -
 -                                                                             -
 -------------------------------------------------------------------------------
 COUNTER                                    TOTAL       BLAS       SMM       ACC
 flops     9 x     9 x     8               217728       0.0%    100.0%      0.0%
 flops     9 x     5 x     8               483840       0.0%    100.0%      0.0%
 flops     9 x     9 x     9               521964       0.0%    100.0%      0.0%
 flops     9 x     5 x     9               544320       0.0%    100.0%      0.0%
 flops     5 x     9 x     8               604800       0.0%    100.0%      0.0%
 flops     5 x     9 x     9               680400       0.0%    100.0%      0.0%
 flops     9 x     9 x    76              1994544       0.0%    100.0%      0.0%
 flops     9 x     5 x    76              4432320       0.0%    100.0%      0.0%
 flops     5 x     5 x     8              4838400       0.0%    100.0%      0.0%
 flops     9 x     9 x    32              5225472       0.0%    100.0%      0.0%
 flops     5 x     5 x     9              5443200       0.0%    100.0%      0.0%
 flops     5 x     9 x    76              5540400       0.0%    100.0%      0.0%
 flops     9 x     5 x    32             11612160       0.0%    100.0%      0.0%
 flops     5 x     9 x    32             14515200       0.0%    100.0%      0.0%
 flops    13 x     9 x     8             16039296       0.0%    100.0%      0.0%
 flops     9 x    13 x     8             16039296       0.0%    100.0%      0.0%
 flops    13 x     9 x     9             18044208       0.0%    100.0%      0.0%
 flops     9 x    13 x     9             18044208       0.0%    100.0%      0.0%
 flops     9 x     9 x    80             23639040       0.0%    100.0%      0.0%
 flops     9 x     9 x    81             23934528       0.0%    100.0%      0.0%
 flops     9 x     9 x    64             39502080       0.0%    100.0%      0.0%
 flops     9 x     5 x    80             52531200       0.0%    100.0%      0.0%
 flops     9 x     5 x    81             53187840       0.0%    100.0%      0.0%
 flops     5 x     9 x    80             65664000       0.0%    100.0%      0.0%
 flops     5 x     9 x    81             66484800       0.0%    100.0%      0.0%
 flops     9 x     5 x    64             87782400       0.0%    100.0%      0.0%
 flops     5 x     5 x    76             89193600       0.0%    100.0%      0.0%
 flops     5 x     9 x    64            109728000       0.0%    100.0%      0.0%
 flops    13 x     5 x     8            112694400       0.0%    100.0%      0.0%
 flops     5 x    13 x     8            113568000       0.0%    100.0%      0.0%
 flops     5 x     5 x    32            116121600       0.0%    100.0%      0.0%
 flops     9 x     9 x    96            118506240       0.0%    100.0%      0.0%
 flops    13 x     5 x     9            126781200       0.0%    100.0%      0.0%
 flops     5 x    13 x     9            127764000       0.0%    100.0%      0.0%
 flops    13 x     9 x    76            146931408       0.0%    100.0%      0.0%
 flops     9 x    13 x    76            146931408       0.0%    100.0%      0.0%
 flops     9 x     5 x    96            263347200       0.0%    100.0%      0.0%
 flops     5 x     9 x    96            329184000       0.0%    100.0%      0.0%
 flops    13 x     9 x    32            384943104       0.0%    100.0%      0.0%
 flops     9 x    13 x    32            384943104       0.0%    100.0%      0.0%
 flops     5 x     5 x    80            525312000       0.0%    100.0%      0.0%
 flops     5 x     5 x    81            531878400       0.0%    100.0%      0.0%
 flops     5 x     5 x    64            915609600       0.0%    100.0%      0.0%
 flops    13 x     9 x    80           1741409280       0.0%    100.0%      0.0%
 flops     9 x    13 x    80           1741409280       0.0%    100.0%      0.0%
 flops    13 x     9 x    81           1763176896       0.0%    100.0%      0.0%
 flops     9 x    13 x    81           1763176896       0.0%    100.0%      0.0%
 flops    13 x     5 x    76           2077467600       0.0%    100.0%      0.0%
 flops     5 x    13 x    76           2093572000       0.0%    100.0%      0.0%
 flops    13 x    13 x     8           2583899136       0.0%    100.0%      0.0%
 flops    13 x     5 x    32           2704665600       0.0%    100.0%      0.0%
 flops     5 x    13 x    32           2725632000       0.0%    100.0%      0.0%
 flops     5 x     5 x    96           2746828800       0.0%    100.0%      0.0%
 flops    13 x    13 x     9           2906886528       0.0%    100.0%      0.0%
 flops    13 x     9 x    64           2909986560       0.0%    100.0%      0.0%
 flops     9 x    13 x    64           2909986560       0.0%    100.0%      0.0%
 flops    13 x     9 x    96           8729959680       0.0%    100.0%      0.0%
 flops     9 x    13 x    96           8729959680       0.0%    100.0%      0.0%
 flops    13 x     5 x    80          12235392000       0.0%    100.0%      0.0%
 flops     5 x    13 x    80          12330240000       0.0%    100.0%      0.0%
 flops    13 x     5 x    81          12388334400       0.0%    100.0%      0.0%
 flops     5 x    13 x    81          12484368000       0.0%    100.0%      0.0%
 flops    13 x     5 x    64          21326073600       0.0%    100.0%      0.0%
 flops     5 x    13 x    64          21491392000       0.0%    100.0%      0.0%
 flops    13 x    13 x    76          47632950144       0.0%    100.0%      0.0%
 flops    13 x    13 x    32          62013579264       0.0%    100.0%      0.0%
 flops    13 x     5 x    96          63978220800       0.0%    100.0%      0.0%
 flops     5 x    13 x    96          64474176000       0.0%    100.0%      0.0%
 flops    13 x    13 x    80         280537620480       0.0%    100.0%      0.0%
 flops    13 x    13 x    81         284044340736       0.0%    100.0%      0.0%
 flops    13 x    13 x    64         488972150784       0.0%    100.0%      0.0%
 flops    13 x    13 x    96        1466916452352       0.0%    100.0%      0.0%
 flops inhomo. stacks                           0       0.0%      0.0%      0.0%
 flops total                         2.904034E+12       0.0%    100.0%      0.0%
 flops max/rank                    188.678183E+09       0.0%    100.0%      0.0%
 matmuls inhomo. stacks                         0       0.0%      0.0%      0.0%
 matmuls total                          123485798       0.0%    100.0%      0.0%
 number of processed stacks               1301902       0.0%    100.0%      0.0%
 average stack size                                     0.0      94.9       0.0
 marketing flops                     4.551267E+12
 -------------------------------------------------------------------------------
 # multiplications                           4500
 max memory usage/rank               3.269677E+09
 # max total images/rank                        1
 # max 3D layers                                1
 # MPI messages exchanged                  432000
 MPI messages size (bytes):
  total size                       101.643256E+09
  min size                           0.000000E+00
  max size                         298.752000E+03
  average size                     235.285312E+03
 MPI breakdown and total messages size (bytes):
             size <=      128               17100                        0
       128 < size <=     8192                1140                   738720
      8192 < size <=    32768                8064                211800960
     32768 < size <=   131072               24192               2392104960
    131072 < size <=  4194304              381504              99038219904
   4194304 < size <= 16777216                   0                        0
  16777216 < size                               0                        0
 -------------------------------------------------------------------------------

 MEMORY| Estimated peak process memory [MiB]                                3119

 -------------------------------------------------------------------------------
 -                                                                             -
 -                         MESSAGE PASSING PERFORMANCE                         -
 -                                                                             -
 -------------------------------------------------------------------------------

 ROUTINE             CALLS      AVE VOLUME [Bytes]
 MP_Group             4534
 MP_Bcast             2722                 527196.
 MP_Allreduce        70725                    267.
 MP_Sync               214
 MP_Alltoall        182432               19802139.
 MP_SendRecv         54000                1166400.
 MP_ISendRecv       270300                 482112.
 MP_Wait            900875
 MP_comm_split         190
 MP_ISend           432500                1694491.
 MP_IRecv           432500                1692572.
 MP_Recv              2114                 389935.
 MP_Memory          348428
 -------------------------------------------------------------------------------


 -------------------------------------------------------------------------------
 -                                                                             -
 -                           R E F E R E N C E S                               -
 -                                                                             -
 -------------------------------------------------------------------------------
 
 CP2K version 7.0 (Development Version), the CP2K developers group (2018).
 CP2K is freely available from https://www.cp2k.org/ .

 Schuett, Ole; Messmer, Peter; Hutter, Juerg; VandeVondele, Joost. 
 Electronic Structure Calculations on Graphics Processing Units, John Wiley & Sons, Ltd, 173-190 (2016). 
 GPU-Accelerated Sparse Matrix-Matrix Multiplication for Linear Scaling Density Functional Theory.
 http://dx.doi.org/10.1002/9781118670712.ch8


 Borstnik, U; VandeVondele, J; Weber, V; Hutter, J. 
 PARALLEL COMPUTING, 40 (5-6), 47-58 (2014). 
 Sparse matrix multiplication: The distributed block-compressed sparse
 row library.
 http://dx.doi.org/10.1016/j.parco.2014.03.012


 Hutter, J; Iannuzzi, M; Schiffmann, F; VandeVondele, J. 
 WILEY INTERDISCIPLINARY REVIEWS-COMPUTATIONAL MOLECULAR SCIENCE, 4 (1), 15-25 (2014). 
 CP2K: atomistic simulations of condensed matter systems.
 http://dx.doi.org/10.1002/wcms.1159


 Grimme, S; Ehrlich, S; Goerigk, L. 
 JOURNAL OF COMPUTATIONAL CHEMISTRY, 32, 1456 (2011). 
 Effect of the damping function in dispersion corrected density functional theory.
 http://dx.doi.org/10.1002/jcc.21759


 Grimme, S; Antony, J; Ehrlich, S; Krieg, H. 
 JOURNAL OF CHEMICAL PHYSICS, 132 (15), 154104 (2010). 
 A consistent and accurate ab initio parametrization of density
 functional dispersion correction (DFT-D) for the 94 elements H-Pu.
 http://dx.doi.org/10.1063/1.3382344


 VandeVondele, J; Hutter, J. 
 JOURNAL OF CHEMICAL PHYSICS, 127 (11), 114105 (2007). 
 Gaussian basis sets for accurate calculations on molecular systems in
 gas and condensed phases.
 http://dx.doi.org/10.1063/1.2770708


 Krack, M. 
 THEORETICAL CHEMISTRY ACCOUNTS, 114 (1-3), 145-152 (2005). 
 Pseudopotentials for H to Kr optimized for gradient-corrected
 exchange-correlation functionals.
 http://dx.doi.org/10.1007/s00214-005-0655-y


 VandeVondele, J; Krack, M; Mohamed, F; Parrinello, M; Chassaing, T;
 Hutter, J. COMPUTER PHYSICS COMMUNICATIONS, 167 (2), 103-128 (2005). 
 QUICKSTEP: Fast and accurate density functional calculations using a
 mixed Gaussian and plane waves approach.
 http://dx.doi.org/10.1016/j.cpc.2004.12.014


 Frigo, M; Johnson, SG. 
 PROCEEDINGS OF THE IEEE, 93 (2), 216-231 (2005). 
 The design and implementation of FFTW3.
 http://dx.doi.org/10.1109/JPROC.2004.840301


 Hartwigsen, C; Goedecker, S; Hutter, J. 
 PHYSICAL REVIEW B, 58 (7), 3641-3662 (1998). 
 Relativistic separable dual-space Gaussian pseudopotentials from H to Rn.
 http://dx.doi.org/10.1103/PhysRevB.58.3641


 Lippert, G; Hutter, J; Parrinello, M. 
 MOLECULAR PHYSICS, 92 (3), 477-487 (1997). 
 A hybrid Gaussian and plane wave density functional scheme.
 http://dx.doi.org/10.1080/002689797170220


 Goedecker, S; Teter, M; Hutter, J. 
 PHYSICAL REVIEW B, 54 (3), 1703-1710 (1996). 
 Separable dual-space Gaussian pseudopotentials.
 http://dx.doi.org/10.1103/PhysRevB.54.1703


 BECKE, AD. PHYSICAL REVIEW A, 38 (6), 3098-3100 (1988). 
 DENSITY-FUNCTIONAL EXCHANGE-ENERGY APPROXIMATION WITH CORRECT
 ASYMPTOTIC-BEHAVIOR.
 http://dx.doi.org/10.1103/PhysRevA.38.3098


 LEE, CT; YANG, WT; PARR, RG. 
 PHYSICAL REVIEW B, 37 (2), 785-789 (1988). 
 DEVELOPMENT OF THE COLLE-SALVETTI CORRELATION-ENERGY FORMULA INTO A
 FUNCTIONAL OF THE ELECTRON-DENSITY.
 http://dx.doi.org/10.1103/PhysRevB.37.785


 -------------------------------------------------------------------------------
 -                                                                             -
 -                                T I M I N G                                  -
 -                                                                             -
 -------------------------------------------------------------------------------
 SUBROUTINE                       CALLS  ASD         SELF TIME        TOTAL TIME
                                MAXIMUM       AVERAGE  MAXIMUM  AVERAGE  MAXIMUM
 CP2K                                 1  1.0     0.20     0.24 27797.96 27798.11
 qs_energies                          5  2.0     0.00     0.01 27790.76 27790.91
 scf_env_do_scf                       5  3.0     0.02     0.02 27770.76 27770.95
 scf_env_do_scf_inner_loop         2250  4.0     0.17     0.51 27770.74 27770.94
 qs_ks_update_qs_env               2250  5.0     0.02     0.02 11550.14 11550.30
 rebuild_ks_matrix                 2250  6.0     0.01     0.01 11547.49 11547.63
 qs_ks_build_kohn_sham_matrix      2250  7.0     0.33     0.38 11547.48 11547.63
 pw_transfer                      51787  9.0     4.54     4.83  8565.04  8617.64
 fft_wrap_pw1pw2                  47287 10.0     0.55     0.59  8472.16  8524.42
 qs_rho_update_rho                 2255  5.0     0.02     0.03  8320.58  8321.45
 calculate_rho_elec                4510  6.0  2614.02  3460.83  8320.56  8321.43
 fft_wrap_pw1pw2_250              20257 10.2   594.67   616.55  7635.44  7695.63
 gspace_mixing                     2241  5.0    46.79    47.08  6668.91  6668.94
 sum_up_and_integrate              2250  8.0    44.82    45.29  6587.41  6587.60
 integrate_v_rspace                4500  9.0  2460.06  3227.66  6542.58  6544.48
 density_rs2pw                     4510  7.0     0.27     0.30  5518.53  6442.52
 fft3d_ps                         47287 12.0  3757.99  3927.98  6226.64  6300.88
 broyden_mixing                    2241  6.0  4354.57  4417.43  4487.23  4497.89
 rs_pw_transfer                   36045  9.5     0.74     0.87  2771.74  3679.72
 qs_vxc_create                     2250  8.0     0.06     0.07  3597.27  3633.87
 xc_vxc_pw_create                  2250  9.0   314.22   351.54  3597.21  3633.81
 potential_pw2rs                   4500 10.0     6.20     6.52  3301.95  3304.19
 xc_rho_set_and_dset_create        2250 10.0   355.11   363.19  2440.09  2484.47
 rs_pw_transfer_RS2PW_250          4515  9.0   341.35   381.86  1203.53  2124.10
 mp_waitany                      360500 11.5  1119.24  2015.27  1119.24  2015.27
 mp_alltoall_d11v                 63045  9.3   798.36  1668.37   798.36  1668.37
 rs_distribute_matrix              9010  8.5     7.71    14.10   798.66  1662.69
 x_to_yz                          24742 13.3  1079.39  1088.77  1528.57  1636.08
 pw_nn_compose_r                  27000 10.5  1049.56  1074.62  1206.51  1485.02
 xc_functional_eval                4500 11.0     0.05     0.06  1285.09  1326.65
 qs_scf_new_mos                    2250  5.0     0.06     0.07  1236.82  1237.29
 eigensolver                       4500  6.0     0.32     0.44  1166.61  1166.81
 yz_to_x                          22545 12.6   630.29   643.87   939.20  1009.19
 lyp_lsd_eval                      2250 12.0   920.98   954.57   920.98   954.57
 cp_fm_syevd                       4500  7.0     0.03     0.04   925.80   925.96
 cp_fm_syevd_base                  4500  8.0   925.62   925.76   925.62   925.76
 mp_alltoall_z22v                 47287 14.0   758.09   905.51   758.09   905.51
 pw_scatter_p                     24742 12.3   801.25   809.59   801.25   809.59
 pw_gather_p                      22545 11.6   790.37   806.97   790.37   806.97
 rs_pw_transfer_PW2RS_250          4500 12.0   537.09   554.36   791.76   806.91
 fft_wrap_pw1pw2_90                9010 11.5    50.94    55.65   726.09   746.32
 -------------------------------------------------------------------------------

 The number of warnings for this run is : 7
 
 -------------------------------------------------------------------------------
  **** **** ******  **  PROGRAM ENDED AT                 2024-07-18 23:10:40.790
 ***** ** ***  *** **   PROGRAM RAN ON                                sebnode114
 **    ****   ******    PROGRAM RAN BY                                    luehrs
 ***** **    ** ** **   PROGRAM PROCESS ID                                232954
  **** **  *******  **  PROGRAM STOPPED IN /home/luehrs/PhD/Sodium_batteries/Sod
                                           ium-graphene-edge/Zig_zag_2/Hydrogen
