 DBCSR| CPU Multiplication driver                                           BLAS (U)
 DBCSR| Multrec recursion limit                                              512 (U)
 DBCSR| Multiplication stack size                                           1000 (D)
 DBCSR| Maximum elements for images                                    UNLIMITED (U)
 DBCSR| Multiplicative factor virtual images                                   1 (U)
 DBCSR| Use multiplication densification                                       T (D)
 DBCSR| Multiplication size stacks                                             3 (U)
 DBCSR| Use memory pool for CPU allocation                                     F (U)
 DBCSR| Number of 3D layers                                               SINGLE (U)
 DBCSR| Use MPI memory allocation                                              F (U)
 DBCSR| Use RMA algorithm                                                      F (U)
 DBCSR| Use Communication thread                                               T (U)
 DBCSR| Communication thread load                                             87 (D)
 DBCSR| MPI: My process id                                                     0
 DBCSR| MPI: Number of processes                                              16
 DBCSR| OMP: Current number of threads                                         1
 DBCSR| OMP: Max number of threads                                             1
 DBCSR| Split modifier for TAS multiplication algorithm                  1.0E+00 (U)


  **** **** ******  **  PROGRAM STARTED AT               2025-06-13 03:37:27.079
 ***** ** ***  *** **   PROGRAM STARTED ON                            sebnode102
 **    ****   ******    PROGRAM STARTED BY                                luehrs
 ***** **    ** ** **   PROGRAM PROCESS ID                                774126
  **** **  *******  **  PROGRAM STARTED IN /home/luehrs/PhD/Sodium_batteries/Sod
                                           ium-graphene-edge/Zig_zag_2/Hydrogen

 CP2K| version string:                                       CP2K version 2023.1
 CP2K| source code revision number:                                  git:b888bd8
 CP2K| cp2kflags: omp libint fftw3 libxc elpa parallel scalapack spglib         
 CP2K| is freely available from                            https://www.cp2k.org/
 CP2K| Program compiled at                          Tue Jan 10 19:52:03 UTC 2023
 CP2K| Program compiled on                                            x86-ubc-01
 CP2K| Program compiled for                                Linux-x86_64-gfortran
 CP2K| Data directory path                                       /usr/share/cp2k
 CP2K| Input file name                     graphene_zig_zag_BSSE_PBE-1_2.restart

 GLOBAL| Force Environment number                                              1
 GLOBAL| Basis set file name                                      ./BASIS_MOLOPT
 GLOBAL| Potential file name                                    ./GTH_POTENTIALS
 GLOBAL| MM Potential file name                                     MM_POTENTIAL
 GLOBAL| Coordinate file name              graphene_hydrogen_zig-zag_relaxed.xyz
 GLOBAL| Method name                                                        CP2K
 GLOBAL| Project name                                  graphene_zig_zag_BSSE_PBE
 GLOBAL| Run type                                                           BSSE
 GLOBAL| FFT library                                                       FFTW3
 GLOBAL| Diagonalization library                                            ELPA
 GLOBAL| DGEMM library                                                      BLAS
 GLOBAL| Minimum number of eigenvectors for ELPA usage                        16
 GLOBAL| Orthonormality check for eigenvectors                          DISABLED
 GLOBAL| Matrix multiplication library                                 ScaLAPACK
 GLOBAL| All-to-all communication in single precision                          F
 GLOBAL| FFTs using library dependent lengths                                  F
 GLOBAL| Grid backend                                                       AUTO
 GLOBAL| Global print level                                                  LOW
 GLOBAL| MPI I/O enabled                                                       T
 GLOBAL| Total number of message passing processes                            16
 GLOBAL| Number of threads for this process                                    1
 GLOBAL| This output is from process                                           0
 GLOBAL| Stack size for threads created by OpenMP (OMP_STACKSIZE)        default
 GLOBAL| CPU model name                Intel(R) Xeon(R) CPU E5-2620 v4 @ 2.10GHz

 MEMORY| system memory details [Kb]
 MEMORY|                        rank 0           min           max       average
 MEMORY| MemTotal             65831284      65831284      65831284      65831284
 MEMORY| MemFree              61525484      61525484      61525484      61525484
 MEMORY| Buffers                320048        320048        320048        320048
 MEMORY| Cached                1913044       1913044       1913044       1913044
 MEMORY| Slab                   265464        265464        265464        265464
 MEMORY| SReclaimable           140024        140024        140024        140024
 MEMORY| MemLikelyFree        63898600      63898600      63898600      63898600


 GENERATE|  Preliminary Number of Bonds generated:                             0
 GENERATE|  Achieved consistency in connectivity generation.

 *******************************************************************************
 *******************************************************************************
 **                                                                           **
 **     #####                         ##              ##                      **
 **    ##   ##            ##          ##              ##                      **
 **   ##     ##                       ##            ######                    **
 **   ##     ##  ##   ##  ##   #####  ##  ##   ####   ##    #####    #####    **
 **   ##     ##  ##   ##  ##  ##      ## ##   ##      ##   ##   ##  ##   ##   **
 **   ##  ## ##  ##   ##  ##  ##      ####     ###    ##   ######   ######    **
 **    ##  ###   ##   ##  ##  ##      ## ##      ##   ##   ##       ##        **
 **     #######   #####   ##   #####  ##  ##  ####    ##    #####   ##        **
 **           ##                                                    ##        **
 **                                                                           **
 **                                                ... make the atoms dance   **
 **                                                                           **
 **            Copyright (C) by CP2K developers group (2000-2022)             **
 **                      J. Chem. Phys. 152, 194103 (2020)                    **
 **                                                                           **
 *******************************************************************************


 TOTAL NUMBERS AND MAXIMUM NUMBERS

  Total number of            - Atomic kinds:                                   3
                             - Atoms:                                        129
                             - Shell sets:                                   129
                             - Shells:                                       613
                             - Primitive Cartesian functions:                647
                             - Cartesian basis functions:                   1657
                             - Spherical basis functions:                   1545

  Maximum angular momentum of- Orbital basis functions:                        2
                             - Local part of the GTH pseudopotential:          2
                             - Non-local part of the GTH pseudopotential:      1


 SCF PARAMETERS         Density guess:                                    ATOMIC
                        --------------------------------------------------------
                        max_scf:                                             400
                        max_scf_history:                                       0
                        max_diis:                                              4
                        --------------------------------------------------------
                        eps_scf:                                        3.00E-07
                        eps_scf_history:                                0.00E+00
                        eps_diis:                                       1.00E-01
                        eps_eigval:                                     1.00E-05
                        --------------------------------------------------------
                        level_shift [a.u.]:                             0.000000
                        added MOs                                       100  100
                        --------------------------------------------------------
                        Mixing method:                            BROYDEN_MIXING
                                                charge density mixing in g-space
                        --------------------------------------------------------
                        Smear method:                                FERMI_DIRAC
                        Electronic temperature [K]:                        300.0
                        Electronic temperature [a.u.]:                  9.50E-04
                        Accuracy threshold:                             1.00E-10
                        --------------------------------------------------------
                        Outer loop SCF in use 
                        No variables optimised in outer loop
                        eps_scf                                         1.00E-06
                        max_scf                                              150
                        DIIS optimization
                        DIIS buffer length                                     3
                        step_size                                       5.00E-01

 -------------------------------------------------------------------------------
 -                                                                             -
 -  BSSE CALCULATION         FRAGMENT CONF: 11        FRAGMENT SUBCONF: 10     -
 -                           CHARGE =     0           MULTIPLICITY =     0     -
 -                                                                             -
 -                 ATOM INDEX                              ATOM NAME           -
 -                 ----------                              ---------           -
 -                      1                                   C                  -
 -                      2                                   C                  -
 -                      3                                   C                  -
 -                      4                                   C                  -
 -                      5                                   C                  -
 -                      6                                   C                  -
 -                      7                                   C                  -
 -                      8                                   C                  -
 -                      9                                   C                  -
 -                     10                                   C                  -
 -                     11                                   C                  -
 -                     12                                   C                  -
 -                     13                                   C                  -
 -                     14                                   C                  -
 -                     15                                   C                  -
 -                     16                                   C                  -
 -                     17                                   C                  -
 -                     18                                   C                  -
 -                     19                                   C                  -
 -                     20                                   C                  -
 -                     21                                   C                  -
 -                     22                                   C                  -
 -                     23                                   C                  -
 -                     24                                   C                  -
 -                     25                                   C                  -
 -                     26                                   C                  -
 -                     27                                   C                  -
 -                     28                                   C                  -
 -                     29                                   C                  -
 -                     30                                   C                  -
 -                     31                                   C                  -
 -                     32                                   C                  -
 -                     33                                   C                  -
 -                     34                                   C                  -
 -                     35                                   C                  -
 -                     36                                   C                  -
 -                     37                                   C                  -
 -                     38                                   C                  -
 -                     39                                   C                  -
 -                     40                                   C                  -
 -                     41                                   C                  -
 -                     42                                   C                  -
 -                     43                                   C                  -
 -                     44                                   C                  -
 -                     45                                   C                  -
 -                     46                                   C                  -
 -                     47                                   C                  -
 -                     48                                   C                  -
 -                     49                                   C                  -
 -                     50                                   C                  -
 -                     51                                   C                  -
 -                     52                                   C                  -
 -                     53                                   C                  -
 -                     54                                   C                  -
 -                     55                                   C                  -
 -                     56                                   C                  -
 -                     57                                   C                  -
 -                     58                                   C                  -
 -                     59                                   C                  -
 -                     60                                   C                  -
 -                     61                                   C                  -
 -                     62                                   C                  -
 -                     63                                   C                  -
 -                     64                                   C                  -
 -                     65                                   C                  -
 -                     66                                   C                  -
 -                     67                                   C                  -
 -                     68                                   C                  -
 -                     69                                   C                  -
 -                     70                                   C                  -
 -                     71                                   C                  -
 -                     72                                   C                  -
 -                     73                                   C                  -
 -                     74                                   C                  -
 -                     75                                   C                  -
 -                     76                                   C                  -
 -                     77                                   C                  -
 -                     78                                   C                  -
 -                     79                                   C                  -
 -                     80                                   C                  -
 -                     81                                   C                  -
 -                     82                                   C                  -
 -                     83                                   C                  -
 -                     84                                   C                  -
 -                     85                                   C                  -
 -                     86                                   C                  -
 -                     87                                   C                  -
 -                     88                                   C                  -
 -                     89                                   C                  -
 -                     90                                   C                  -
 -                     91                                   C                  -
 -                     92                                   C                  -
 -                     93                                   C                  -
 -                     94                                   C                  -
 -                     95                                   C                  -
 -                     96                                   C                  -
 -                     97                                   C                  -
 -                     98                                   C                  -
 -                     99                                   C                  -
 -                    100                                   C                  -
 -                    101                                   C                  -
 -                    102                                   C                  -
 -                    103                                   C                  -
 -                    104                                   C                  -
 -                    105                                   C                  -
 -                    106                                   C                  -
 -                    107                                   C                  -
 -                    108                                   C                  -
 -                    109                                   C                  -
 -                    110                                   C                  -
 -                    111                                   C                  -
 -                    112                                   C                  -
 -                    113                                   H                  -
 -                    114                                   H                  -
 -                    115                                   H                  -
 -                    116                                   H                  -
 -                    117                                   H                  -
 -                    118                                   H                  -
 -                    119                                   H                  -
 -                    120                                   H                  -
 -                    121                                   H                  -
 -                    122                                   H                  -
 -                    123                                   H                  -
 -                    124                                   H                  -
 -                    125                                   H                  -
 -                    126                                   H                  -
 -                    127                                   H                  -
 -                    128                                   H                  -
 -                    129                                   Na_ghost           -
 -------------------------------------------------------------------------------

 *******************************************************************************
 *******************************************************************************
 **                                                                           **
 **     #####                         ##              ##                      **
 **    ##   ##            ##          ##              ##                      **
 **   ##     ##                       ##            ######                    **
 **   ##     ##  ##   ##  ##   #####  ##  ##   ####   ##    #####    #####    **
 **   ##     ##  ##   ##  ##  ##      ## ##   ##      ##   ##   ##  ##   ##   **
 **   ##  ## ##  ##   ##  ##  ##      ####     ###    ##   ######   ######    **
 **    ##  ###   ##   ##  ##  ##      ## ##      ##   ##   ##       ##        **
 **     #######   #####   ##   #####  ##  ##  ####    ##    #####   ##        **
 **           ##                                                    ##        **
 **                                                                           **
 **                                                ... make the atoms dance   **
 **                                                                           **
 **            Copyright (C) by CP2K developers group (2000-2022)             **
 **                      J. Chem. Phys. 152, 194103 (2020)                    **
 **                                                                           **
 *******************************************************************************


 TOTAL NUMBERS AND MAXIMUM NUMBERS

  Total number of            - Atomic kinds:                                   3
                             - Atoms:                                        129
                             - Shell sets:                                   129
                             - Shells:                                       613
                             - Primitive Cartesian functions:                647
                             - Cartesian basis functions:                   1657
                             - Spherical basis functions:                   1545

  Maximum angular momentum of- Orbital basis functions:                        2
                             - Local part of the GTH pseudopotential:          2
                             - Non-local part of the GTH pseudopotential:      0


 SCF PARAMETERS         Density guess:                                    ATOMIC
                        --------------------------------------------------------
                        max_scf:                                             400
                        max_scf_history:                                       0
                        max_diis:                                              4
                        --------------------------------------------------------
                        eps_scf:                                        3.00E-07
                        eps_scf_history:                                0.00E+00
                        eps_diis:                                       1.00E-01
                        eps_eigval:                                     1.00E-05
                        --------------------------------------------------------
                        level_shift [a.u.]:                             0.000000
                        added MOs                                       100  100
                        --------------------------------------------------------
                        Mixing method:                            BROYDEN_MIXING
                                                charge density mixing in g-space
                        --------------------------------------------------------
                        Smear method:                                FERMI_DIRAC
                        Electronic temperature [K]:                        300.0
                        Electronic temperature [a.u.]:                  9.50E-04
                        Accuracy threshold:                             1.00E-10
                        --------------------------------------------------------
                        Outer loop SCF in use 
                        No variables optimised in outer loop
                        eps_scf                                         1.00E-06
                        max_scf                                              150
                        DIIS optimization
                        DIIS buffer length                                     3
                        step_size                                       5.00E-01

 Spin 1

 Number of electrons:                                                        232
 Number of occupied orbitals:                                                232
 Number of molecular orbitals:                                               332

 Spin 2

 Number of electrons:                                                        232
 Number of occupied orbitals:                                                232
 Number of molecular orbitals:                                               332

 Number of orbital functions:                                               1545
 Number of independent orbital functions:                                   1545

 Extrapolation method: initial_guess


 SCF WAVEFUNCTION OPTIMIZATION

  Step     Update method      Time    Convergence         Total energy    Change
  ------------------------------------------------------------------------------
     1 NoMix/Diag. 0.10E+00    7.5     0.46261864      -640.1357834731 -6.40E+02
     2 Broy./Diag. 0.10E+00   12.8     0.04952072      -616.8105633560  2.33E+01
     3 Broy./Diag. 0.10E+00   13.1     0.13735837      -628.8538495482 -1.20E+01
     4 Broy./Diag. 0.10E+00   13.2     0.05301423      -640.9716542456 -1.21E+01
     5 Broy./Diag. 0.10E+00   13.3     0.03329217      -644.7235562738 -3.75E+00
     6 Broy./Diag. 0.10E+00   13.5     0.10229368      -645.2404132520 -5.17E-01
     7 Broy./Diag. 0.10E+00   13.7     0.02506426      -645.6864746003 -4.46E-01
     8 Broy./Diag. 0.10E+00   14.0     0.02321470      -645.8550177191 -1.69E-01
     9 Broy./Diag. 0.10E+00   14.2     0.00859534      -646.2648295134 -4.10E-01
    10 Broy./Diag. 0.10E+00   14.5     0.01002730      -646.4211133603 -1.56E-01
    11 Broy./Diag. 0.10E+00   14.5     0.00600650      -646.6211986981 -2.00E-01
    12 Broy./Diag. 0.10E+00   14.5     0.00231549      -646.7598348561 -1.39E-01
    13 Broy./Diag. 0.10E+00   14.5     0.00327445      -646.9166617510 -1.57E-01
    14 Broy./Diag. 0.10E+00   14.8     0.00054105      -647.0841546234 -1.67E-01
    15 Broy./Diag. 0.10E+00   14.6     0.00124261      -647.0635037512  2.07E-02
    16 Broy./Diag. 0.10E+00   14.5     0.00043240      -647.1115683797 -4.81E-02
    17 Broy./Diag. 0.10E+00   14.5     0.00135370      -647.1123573421 -7.89E-04
    18 Broy./Diag. 0.10E+00   14.5     0.00012648      -647.1275868745 -1.52E-02
    19 Broy./Diag. 0.10E+00   14.5     0.00058611      -647.1265913148  9.96E-04
    20 Broy./Diag. 0.10E+00   14.6     0.00052316      -647.1236688689  2.92E-03
    21 Broy./Diag. 0.10E+00   14.6     0.00021751      -647.1169499609  6.72E-03
    22 Broy./Diag. 0.10E+00   14.6     0.00023933      -647.1116167207  5.33E-03
    23 Broy./Diag. 0.10E+00   14.5     0.00018096      -647.1074232903  4.19E-03
    24 Broy./Diag. 0.10E+00   14.6     0.00015664      -647.1120789980 -4.66E-03
    25 Broy./Diag. 0.10E+00   14.6     0.00010167      -647.1255758851 -1.35E-02
    26 Broy./Diag. 0.10E+00   14.6     0.00010404      -647.1347478051 -9.17E-03
    27 Broy./Diag. 0.10E+00   14.6     0.00020168      -647.1413214335 -6.57E-03
    28 Broy./Diag. 0.10E+00   14.6     0.00013091      -647.1484917358 -7.17E-03
    29 Broy./Diag. 0.10E+00   14.6     0.00023957      -647.1483616487  1.30E-04
    30 Broy./Diag. 0.10E+00   14.6     0.00011668      -647.1488562162 -4.95E-04
    31 Broy./Diag. 0.10E+00   14.7     0.00016811      -647.1482884692  5.68E-04
    32 Broy./Diag. 0.10E+00   14.7     0.00013941      -647.1470463939  1.24E-03
    33 Broy./Diag. 0.10E+00   14.7     0.00005736      -647.1467247455  3.22E-04
    34 Broy./Diag. 0.10E+00   14.8     0.00014790      -647.1463253395  3.99E-04
    35 Broy./Diag. 0.10E+00   14.9     0.00010321      -647.1457547157  5.71E-04
    36 Broy./Diag. 0.10E+00   14.9     0.00009748      -647.1454266075  3.28E-04
    37 Broy./Diag. 0.10E+00   14.9     0.00017881      -647.1460481425 -6.22E-04
    38 Broy./Diag. 0.10E+00   14.9     0.00019110      -647.1461313418 -8.32E-05
    39 Broy./Diag. 0.10E+00   15.0     0.00020503      -647.1467591991 -6.28E-04
    40 Broy./Diag. 0.10E+00   15.0     0.00006270      -647.1470310860 -2.72E-04
    41 Broy./Diag. 0.10E+00   15.0     0.00003739      -647.1472706307 -2.40E-04
    42 Broy./Diag. 0.10E+00   15.0     0.00009450      -647.1473773161 -1.07E-04
    43 Broy./Diag. 0.10E+00   15.1     0.00008572      -647.1474524802 -7.52E-05
    44 Broy./Diag. 0.10E+00   15.0     0.00016574      -647.1473742925  7.82E-05
    45 Broy./Diag. 0.10E+00   15.0     0.00011301      -647.1470875346  2.87E-04
    46 Broy./Diag. 0.10E+00   15.0     0.00024114      -647.1469667890  1.21E-04
    47 Broy./Diag. 0.10E+00   15.0     0.00004890      -647.1469588964  7.89E-06
    48 Broy./Diag. 0.10E+00   15.0     0.00005962      -647.1469924791 -3.36E-05
    49 Broy./Diag. 0.10E+00   15.1     0.00002780      -647.1471709746 -1.78E-04
    50 Broy./Diag. 0.10E+00   15.1     0.00002395      -647.1473000970 -1.29E-04
    51 Broy./Diag. 0.10E+00   15.0     0.00002451      -647.1473288544 -2.88E-05
    52 Broy./Diag. 0.10E+00   15.1     0.00002691      -647.1474109913 -8.21E-05
    53 Broy./Diag. 0.10E+00   15.1     0.00000628      -647.1475105230 -9.95E-05
    54 Broy./Diag. 0.10E+00   15.1     0.00010175      -647.1475310639 -2.05E-05
    55 Broy./Diag. 0.10E+00   15.1     0.00001907      -647.1475314505 -3.87E-07
    56 Broy./Diag. 0.10E+00   15.1     0.00006533      -647.1475180880  1.34E-05
    57 Broy./Diag. 0.10E+00   15.1     0.00003093      -647.1475410543 -2.30E-05
    58 Broy./Diag. 0.10E+00   15.0     0.00000934      -647.1475277475  1.33E-05
    59 Broy./Diag. 0.10E+00   15.1     0.00001126      -647.1475015317  2.62E-05
    60 Broy./Diag. 0.10E+00   15.1     0.00002940      -647.1474779323  2.36E-05
    61 Broy./Diag. 0.10E+00   15.1     0.00002151      -647.1474668736  1.11E-05
    62 Broy./Diag. 0.10E+00   15.1     0.00000813      -647.1474602469  6.63E-06
    63 Broy./Diag. 0.10E+00   15.1     0.00003915      -647.1474515847  8.66E-06
    64 Broy./Diag. 0.10E+00   15.1     0.00001673      -647.1474618315 -1.02E-05
    65 Broy./Diag. 0.10E+00   15.0     0.00000779      -647.1474682147 -6.38E-06
    66 Broy./Diag. 0.10E+00   15.1     0.00001927      -647.1474659799  2.23E-06
    67 Broy./Diag. 0.10E+00   15.1     0.00001037      -647.1474697914 -3.81E-06
    68 Broy./Diag. 0.10E+00   15.1     0.00000977      -647.1474769076 -7.12E-06
    69 Broy./Diag. 0.10E+00   15.1     0.00000987      -647.1474735600  3.35E-06
    70 Broy./Diag. 0.10E+00   15.1     0.00001772      -647.1474680611  5.50E-06
    71 Broy./Diag. 0.10E+00   15.1     0.00001926      -647.1474719404 -3.88E-06
    72 Broy./Diag. 0.10E+00   15.0     0.00003651      -647.1474586738  1.33E-05
    73 Broy./Diag. 0.10E+00   15.1     0.00001479      -647.1474558822  2.79E-06
    74 Broy./Diag. 0.10E+00   15.1     0.00001918      -647.1474621651 -6.28E-06
    75 Broy./Diag. 0.10E+00   15.1     0.00000267      -647.1474582706  3.89E-06
    76 Broy./Diag. 0.10E+00   15.1     0.00000500      -647.1474575921  6.79E-07
    77 Broy./Diag. 0.10E+00   15.1     0.00002328      -647.1474598364 -2.24E-06
    78 Broy./Diag. 0.10E+00   15.1     0.00001811      -647.1474598756 -3.92E-08
    79 Broy./Diag. 0.10E+00   15.0     0.00006638      -647.1474663715 -6.50E-06
    80 Broy./Diag. 0.10E+00   15.1     0.00001257      -647.1474672100 -8.38E-07
    81 Broy./Diag. 0.10E+00   15.1     0.00000472      -647.1474674327 -2.23E-07
    82 Broy./Diag. 0.10E+00   15.1     0.00000411      -647.1474677528 -3.20E-07
    83 Broy./Diag. 0.10E+00   15.1     0.00000635      -647.1474654656  2.29E-06
    84 Broy./Diag. 0.10E+00   15.1     0.00000701      -647.1474666665 -1.20E-06
    85 Broy./Diag. 0.10E+00   15.1     0.00000551      -647.1474652472  1.42E-06
    86 Broy./Diag. 0.10E+00   15.1     0.00000695      -647.1474640598  1.19E-06
    87 Broy./Diag. 0.10E+00   15.1     0.00001527      -647.1474600630  4.00E-06
    88 Broy./Diag. 0.10E+00   15.1     0.00001243      -647.1474620858 -2.02E-06
    89 Broy./Diag. 0.10E+00   15.1     0.00001749      -647.1474622389 -1.53E-07
    90 Broy./Diag. 0.10E+00   15.1     0.00000643      -647.1474605176  1.72E-06
    91 Broy./Diag. 0.10E+00   15.1     0.00006821      -647.1474508931  9.62E-06
    92 Broy./Diag. 0.10E+00   15.1     0.00000624      -647.1474394423  1.15E-05
    93 Broy./Diag. 0.10E+00   15.0     0.00001050      -647.1474141004  2.53E-05
    94 Broy./Diag. 0.10E+00   15.1     0.00000873      -647.1474124919  1.61E-06
    95 Broy./Diag. 0.10E+00   15.1     0.00004363      -647.1474089539  3.54E-06
    96 Broy./Diag. 0.10E+00   15.1     0.00000699      -647.1474063567  2.60E-06
    97 Broy./Diag. 0.10E+00   15.1     0.00004942      -647.1473959592  1.04E-05
    98 Broy./Diag. 0.10E+00   15.1     0.00000888      -647.1474075284 -1.16E-05
    99 Broy./Diag. 0.10E+00   15.1     0.00005925      -647.1474171325 -9.60E-06
   100 Broy./Diag. 0.10E+00   15.0     0.00002694      -647.1474247409 -7.61E-06
   101 Broy./Diag. 0.10E+00   15.1     0.00002452      -647.1474221765  2.56E-06
   102 Broy./Diag. 0.10E+00   15.1     0.00006309      -647.1474147563  7.42E-06
   103 Broy./Diag. 0.10E+00   15.1     0.00007058      -647.1474034023  1.14E-05
   104 Broy./Diag. 0.10E+00   15.1     0.00004474      -647.1473919014  1.15E-05
   105 Broy./Diag. 0.10E+00   15.2     0.00003398      -647.1473886108  3.29E-06
   106 Broy./Diag. 0.10E+00   15.2     0.00001165      -647.1473897885 -1.18E-06
   107 Broy./Diag. 0.10E+00   15.1     0.00001073      -647.1473872994  2.49E-06
   108 Broy./Diag. 0.10E+00   15.1     0.00000519      -647.1473852278  2.07E-06
   109 Broy./Diag. 0.10E+00   15.1     0.00001366      -647.1473851862  4.16E-08
   110 Broy./Diag. 0.10E+00   15.1     0.00000340      -647.1473844369  7.49E-07
   111 Broy./Diag. 0.10E+00   15.1     0.00000523      -647.1473859114 -1.47E-06
   112 Broy./Diag. 0.10E+00   15.1     0.00000257      -647.1473909580 -5.05E-06
   113 Broy./Diag. 0.10E+00   15.1     0.00000375      -647.1473954350 -4.48E-06
   114 Broy./Diag. 0.10E+00   15.0     0.00000313      -647.1473955535 -1.19E-07
   115 Broy./Diag. 0.10E+00   15.1     0.00000143      -647.1473860371  9.52E-06
   116 Broy./Diag. 0.10E+00   15.1     0.00001202      -647.1473809876  5.05E-06
   117 Broy./Diag. 0.10E+00   15.1     0.00000652      -647.1473817322 -7.45E-07
   118 Broy./Diag. 0.10E+00   15.1     0.00001578      -647.1473843723 -2.64E-06
   119 Broy./Diag. 0.10E+00   15.1     0.00000403      -647.1473846038 -2.32E-07
   120 Broy./Diag. 0.10E+00   15.1     0.00000847      -647.1473827174  1.89E-06
   121 Broy./Diag. 0.10E+00   15.0     0.00003695      -647.1473773597  5.36E-06
   122 Broy./Diag. 0.10E+00   15.1     0.00001413      -647.1473778490 -4.89E-07
   123 Broy./Diag. 0.10E+00   15.1     0.00000556      -647.1473782738 -4.25E-07
   124 Broy./Diag. 0.10E+00   15.1     0.00001909      -647.1473805928 -2.32E-06
   125 Broy./Diag. 0.10E+00   15.1     0.00001176      -647.1473798802  7.13E-07
   126 Broy./Diag. 0.10E+00   15.1     0.00000542      -647.1473800181 -1.38E-07
   127 Broy./Diag. 0.10E+00   15.1     0.00001109      -647.1473796196  3.99E-07
   128 Broy./Diag. 0.10E+00   15.0     0.00000580      -647.1473792726  3.47E-07
   129 Broy./Diag. 0.10E+00   15.0     0.00000545      -647.1473796934 -4.21E-07
   130 Broy./Diag. 0.10E+00   15.1     0.00000104      -647.1473801382 -4.45E-07
   131 Broy./Diag. 0.10E+00   15.0     0.00000346      -647.1473792013  9.37E-07
   132 Broy./Diag. 0.10E+00   15.0     0.00000986      -647.1473799323 -7.31E-07
   133 Broy./Diag. 0.10E+00   15.1     0.00000356      -647.1473805230 -5.91E-07
   134 Broy./Diag. 0.10E+00   15.1     0.00000295      -647.1473793232  1.20E-06
   135 Broy./Diag. 0.10E+00   15.0     0.00001112      -647.1473757338  3.59E-06
   136 Broy./Diag. 0.10E+00   15.1     0.00000252      -647.1473756796  5.42E-08
   137 Broy./Diag. 0.10E+00   15.1     0.00000723      -647.1473760327 -3.53E-07
   138 Broy./Diag. 0.10E+00   15.1     0.00000950      -647.1473736377  2.39E-06
   139 Broy./Diag. 0.10E+00   15.1     0.00000968      -647.1473726418  9.96E-07
   140 Broy./Diag. 0.10E+00   15.1     0.00000288      -647.1473729212 -2.79E-07
   141 Broy./Diag. 0.10E+00   15.1     0.00000439      -647.1473730671 -1.46E-07
   142 Broy./Diag. 0.10E+00   15.0     0.00000048      -647.1473729134  1.54E-07
   143 Broy./Diag. 0.10E+00   15.1     0.00000302      -647.1473731853 -2.72E-07
   144 Broy./Diag. 0.10E+00   15.1     0.00000727      -647.1473731003  8.50E-08
   145 Broy./Diag. 0.10E+00   15.1     0.00001473      -647.1473733849 -2.85E-07
   146 Broy./Diag. 0.10E+00   15.1     0.00000330      -647.1473741757 -7.91E-07
   147 Broy./Diag. 0.10E+00   15.1     0.00001413      -647.1473739334  2.42E-07
   148 Broy./Diag. 0.10E+00   15.1     0.00000335      -647.1473751243 -1.19E-06
   149 Broy./Diag. 0.10E+00   15.0     0.00004143      -647.1473722609  2.86E-06
   150 Broy./Diag. 0.10E+00   15.0     0.00000966      -647.1473699258  2.34E-06
   151 Broy./Diag. 0.10E+00   15.0     0.00005526      -647.1473665106  3.42E-06
   152 Broy./Diag. 0.10E+00   15.0     0.00001076      -647.1473692275 -2.72E-06
   153 Broy./Diag. 0.10E+00   15.0     0.00000628      -647.1473693153 -8.78E-08
   154 Broy./Diag. 0.10E+00   15.0     0.00000460      -647.1473690339  2.81E-07
   155 Broy./Diag. 0.10E+00   15.1     0.00000428      -647.1473689833  5.06E-08
   156 Broy./Diag. 0.10E+00   15.0     0.00000125      -647.1473686298  3.53E-07
   157 Broy./Diag. 0.10E+00   15.0     0.00000409      -647.1473686080  2.18E-08
   158 Broy./Diag. 0.10E+00   15.0     0.00000288      -647.1473685522  5.58E-08
   159 Broy./Diag. 0.10E+00   15.0     0.00000943      -647.1473687623 -2.10E-07
   160 Broy./Diag. 0.10E+00   15.0     0.00000348      -647.1473706889 -1.93E-06
   161 Broy./Diag. 0.10E+00   15.1     0.00001942      -647.1473692063  1.48E-06
   162 Broy./Diag. 0.10E+00   15.1     0.00000496      -647.1473705999 -1.39E-06
   163 Broy./Diag. 0.10E+00   15.0     0.00000889      -647.1473709815 -3.82E-07
   164 Broy./Diag. 0.10E+00   15.0     0.00000314      -647.1473707661  2.15E-07
   165 Broy./Diag. 0.10E+00   15.0     0.00000136      -647.1473710910 -3.25E-07
   166 Broy./Diag. 0.10E+00   15.0     0.00000235      -647.1473707973  2.94E-07
   167 Broy./Diag. 0.10E+00   15.0     0.00000123      -647.1473702690  5.28E-07
   168 Broy./Diag. 0.10E+00   15.1     0.00000139      -647.1473701294  1.40E-07
   169 Broy./Diag. 0.10E+00   15.1     0.00000249      -647.1473702011 -7.17E-08
   170 Broy./Diag. 0.10E+00   15.0     0.00000096      -647.1473694093  7.92E-07
   171 Broy./Diag. 0.10E+00   15.0     0.00000093      -647.1473672289  2.18E-06
   172 Broy./Diag. 0.10E+00   15.0     0.00000584      -647.1473645281  2.70E-06
   173 Broy./Diag. 0.10E+00   15.1     0.00000620      -647.1473638525  6.76E-07
   174 Broy./Diag. 0.10E+00   15.0     0.00000262      -647.1473631206  7.32E-07
   175 Broy./Diag. 0.10E+00   15.1     0.00000328      -647.1473632156 -9.50E-08
   176 Broy./Diag. 0.10E+00   15.1     0.00000345      -647.1473635025 -2.87E-07
   177 Broy./Diag. 0.10E+00   15.0     0.00000269      -647.1473633133  1.89E-07
   178 Broy./Diag. 0.10E+00   15.0     0.00000895      -647.1473625983  7.15E-07
   179 Broy./Diag. 0.10E+00   15.0     0.00000754      -647.1473619568  6.41E-07
   180 Broy./Diag. 0.10E+00   15.0     0.00000183      -647.1473629855 -1.03E-06
   181 Broy./Diag. 0.10E+00   15.0     0.00000139      -647.1473639128 -9.27E-07
   182 Broy./Diag. 0.10E+00   15.1     0.00000138      -647.1473636334  2.79E-07
   183 Broy./Diag. 0.10E+00   15.1     0.00000159      -647.1473629423  6.91E-07
   184 Broy./Diag. 0.10E+00   15.0     0.00000092      -647.1473628360  1.06E-07
   185 Broy./Diag. 0.10E+00   15.0     0.00000041      -647.1473633966 -5.61E-07
   186 Broy./Diag. 0.10E+00   15.0     0.00000314      -647.1473641036 -7.07E-07
   187 Broy./Diag. 0.10E+00   15.0     0.00000130      -647.1473642397 -1.36E-07
   188 Broy./Diag. 0.10E+00   15.0     0.00000112      -647.1473639918  2.48E-07
   189 Broy./Diag. 0.10E+00   15.1     0.00000166      -647.1473634034  5.88E-07
   190 Broy./Diag. 0.10E+00   15.1     0.00000301      -647.1473628815  5.22E-07
   191 Broy./Diag. 0.10E+00   15.0     0.00000158      -647.1473621438  7.38E-07
   192 Broy./Diag. 0.10E+00   15.0     0.00000244      -647.1473628344 -6.91E-07
   193 Broy./Diag. 0.10E+00   15.0     0.00000224      -647.1473627855  4.89E-08
   194 Broy./Diag. 0.10E+00   15.0     0.00000429      -647.1473624515  3.34E-07
   195 Broy./Diag. 0.10E+00   15.0     0.00000446      -647.1473620651  3.86E-07
   196 Broy./Diag. 0.10E+00   15.1     0.00000097      -647.1473623978 -3.33E-07
   197 Broy./Diag. 0.10E+00   15.1     0.00001500      -647.1473615584  8.39E-07
   198 Broy./Diag. 0.10E+00   15.0     0.00000261      -647.1473627611 -1.20E-06
   199 Broy./Diag. 0.10E+00   15.1     0.00000324      -647.1473628734 -1.12E-07
   200 Broy./Diag. 0.10E+00   15.0     0.00001015      -647.1473623177  5.56E-07
   201 Broy./Diag. 0.10E+00   15.0     0.00000472      -647.1473613526  9.65E-07
   202 Broy./Diag. 0.10E+00   15.0     0.00000374      -647.1473615845 -2.32E-07
   203 Broy./Diag. 0.10E+00   15.1     0.00000458      -647.1473612542  3.30E-07
   204 Broy./Diag. 0.10E+00   15.1     0.00000285      -647.1473609012  3.53E-07
   205 Broy./Diag. 0.10E+00   15.0     0.00000323      -647.1473608043  9.69E-08
   206 Broy./Diag. 0.10E+00   15.0     0.00000389      -647.1473606793  1.25E-07
   207 Broy./Diag. 0.10E+00   15.0     0.00000198      -647.1473606765  2.84E-09
   208 Broy./Diag. 0.10E+00   15.0     0.00000090      -647.1473604395  2.37E-07
   209 Broy./Diag. 0.10E+00   15.0     0.00000152      -647.1473602106  2.29E-07
   210 Broy./Diag. 0.10E+00   15.1     0.00000119      -647.1473601661  4.45E-08
   211 Broy./Diag. 0.10E+00   15.1     0.00000051      -647.1473601912 -2.51E-08
   212 Broy./Diag. 0.10E+00   15.0     0.00000401      -647.1473602369 -4.57E-08
   213 Broy./Diag. 0.10E+00   15.0     0.00000270      -647.1473599329  3.04E-07
   214 Broy./Diag. 0.10E+00   15.0     0.00000243      -647.1473598320  1.01E-07
   215 Broy./Diag. 0.10E+00   15.0     0.00000152      -647.1473597623  6.97E-08
   216 Broy./Diag. 0.10E+00   15.0     0.00000313      -647.1473599772 -2.15E-07
   217 Broy./Diag. 0.10E+00   15.1     0.00000533      -647.1473604010 -4.24E-07
   218 Broy./Diag. 0.10E+00   15.1     0.00000204      -647.1473605572 -1.56E-07
   219 Broy./Diag. 0.10E+00   15.0     0.00000027      -647.1473605340  2.32E-08

  *** SCF run converged in   219 steps ***


  Electronic density on regular grids:       -463.9999999998        0.0000000002
  Core density on regular grids:              463.9999999996       -0.0000000004
  Total charge density on r-space grids:       -0.0000000002
  Total charge density g-space grids:          -0.0000000002

  Overlap energy of the core charge distribution:               0.00002384473555
  Self energy of the core charge distribution:              -1516.08847113961406
  Core Hamiltonian energy:                                    475.07072967404321
  Hartree energy:                                             595.08856896694408
  Exchange-correlation energy:                               -201.08409058590647
  Dispersion energy:                                           -0.13111841499409
  Electronic entropic energy:                                  -0.00300287920851
  Fermi energy:                                                -0.12617855443252

  Total energy:                                              -647.14736053400213

  outer SCF iter =    1 RMS gradient =   0.27E-06 energy =       -647.1473605340
  outer SCF loop converged in   1 iterations or  219 steps


  Integrated absolute spin density  :                               0.0015285561
  WARNING: S**2 computation does not yet treat fractional occupied orbitals

 *** WARNING in qs_loc_utils.F:1500 :: User requested the calculation of ***
 *** the localized wavefunction but the section LOCALIZE was not         ***
 *** specified. Localization will not be performed!                      ***


 -------------------------------------------------------------------------------
 -                                                                             -
 -  BSSE CALCULATION         FRAGMENT CONF: 11        FRAGMENT SUBCONF: 01     -
 -                           CHARGE =     0           MULTIPLICITY =     0     -
 -                                                                             -
 -                 ATOM INDEX                              ATOM NAME           -
 -                 ----------                              ---------           -
 -                      1                                   C_ghost            -
 -                      2                                   C_ghost            -
 -                      3                                   C_ghost            -
 -                      4                                   C_ghost            -
 -                      5                                   C_ghost            -
 -                      6                                   C_ghost            -
 -                      7                                   C_ghost            -
 -                      8                                   C_ghost            -
 -                      9                                   C_ghost            -
 -                     10                                   C_ghost            -
 -                     11                                   C_ghost            -
 -                     12                                   C_ghost            -
 -                     13                                   C_ghost            -
 -                     14                                   C_ghost            -
 -                     15                                   C_ghost            -
 -                     16                                   C_ghost            -
 -                     17                                   C_ghost            -
 -                     18                                   C_ghost            -
 -                     19                                   C_ghost            -
 -                     20                                   C_ghost            -
 -                     21                                   C_ghost            -
 -                     22                                   C_ghost            -
 -                     23                                   C_ghost            -
 -                     24                                   C_ghost            -
 -                     25                                   C_ghost            -
 -                     26                                   C_ghost            -
 -                     27                                   C_ghost            -
 -                     28                                   C_ghost            -
 -                     29                                   C_ghost            -
 -                     30                                   C_ghost            -
 -                     31                                   C_ghost            -
 -                     32                                   C_ghost            -
 -                     33                                   C_ghost            -
 -                     34                                   C_ghost            -
 -                     35                                   C_ghost            -
 -                     36                                   C_ghost            -
 -                     37                                   C_ghost            -
 -                     38                                   C_ghost            -
 -                     39                                   C_ghost            -
 -                     40                                   C_ghost            -
 -                     41                                   C_ghost            -
 -                     42                                   C_ghost            -
 -                     43                                   C_ghost            -
 -                     44                                   C_ghost            -
 -                     45                                   C_ghost            -
 -                     46                                   C_ghost            -
 -                     47                                   C_ghost            -
 -                     48                                   C_ghost            -
 -                     49                                   C_ghost            -
 -                     50                                   C_ghost            -
 -                     51                                   C_ghost            -
 -                     52                                   C_ghost            -
 -                     53                                   C_ghost            -
 -                     54                                   C_ghost            -
 -                     55                                   C_ghost            -
 -                     56                                   C_ghost            -
 -                     57                                   C_ghost            -
 -                     58                                   C_ghost            -
 -                     59                                   C_ghost            -
 -                     60                                   C_ghost            -
 -                     61                                   C_ghost            -
 -                     62                                   C_ghost            -
 -                     63                                   C_ghost            -
 -                     64                                   C_ghost            -
 -                     65                                   C_ghost            -
 -                     66                                   C_ghost            -
 -                     67                                   C_ghost            -
 -                     68                                   C_ghost            -
 -                     69                                   C_ghost            -
 -                     70                                   C_ghost            -
 -                     71                                   C_ghost            -
 -                     72                                   C_ghost            -
 -                     73                                   C_ghost            -
 -                     74                                   C_ghost            -
 -                     75                                   C_ghost            -
 -                     76                                   C_ghost            -
 -                     77                                   C_ghost            -
 -                     78                                   C_ghost            -
 -                     79                                   C_ghost            -
 -                     80                                   C_ghost            -
 -                     81                                   C_ghost            -
 -                     82                                   C_ghost            -
 -                     83                                   C_ghost            -
 -                     84                                   C_ghost            -
 -                     85                                   C_ghost            -
 -                     86                                   C_ghost            -
 -                     87                                   C_ghost            -
 -                     88                                   C_ghost            -
 -                     89                                   C_ghost            -
 -                     90                                   C_ghost            -
 -                     91                                   C_ghost            -
 -                     92                                   C_ghost            -
 -                     93                                   C_ghost            -
 -                     94                                   C_ghost            -
 -                     95                                   C_ghost            -
 -                     96                                   C_ghost            -
 -                     97                                   C_ghost            -
 -                     98                                   C_ghost            -
 -                     99                                   C_ghost            -
 -                    100                                   C_ghost            -
 -                    101                                   C_ghost            -
 -                    102                                   C_ghost            -
 -                    103                                   C_ghost            -
 -                    104                                   C_ghost            -
 -                    105                                   C_ghost            -
 -                    106                                   C_ghost            -
 -                    107                                   C_ghost            -
 -                    108                                   C_ghost            -
 -                    109                                   C_ghost            -
 -                    110                                   C_ghost            -
 -                    111                                   C_ghost            -
 -                    112                                   C_ghost            -
 -                    113                                   H_ghost            -
 -                    114                                   H_ghost            -
 -                    115                                   H_ghost            -
 -                    116                                   H_ghost            -
 -                    117                                   H_ghost            -
 -                    118                                   H_ghost            -
 -                    119                                   H_ghost            -
 -                    120                                   H_ghost            -
 -                    121                                   H_ghost            -
 -                    122                                   H_ghost            -
 -                    123                                   H_ghost            -
 -                    124                                   H_ghost            -
 -                    125                                   H_ghost            -
 -                    126                                   H_ghost            -
 -                    127                                   H_ghost            -
 -                    128                                   H_ghost            -
 -                    129                                   Na                 -
 -------------------------------------------------------------------------------

 *******************************************************************************
 *******************************************************************************
 **                                                                           **
 **     #####                         ##              ##                      **
 **    ##   ##            ##          ##              ##                      **
 **   ##     ##                       ##            ######                    **
 **   ##     ##  ##   ##  ##   #####  ##  ##   ####   ##    #####    #####    **
 **   ##     ##  ##   ##  ##  ##      ## ##   ##      ##   ##   ##  ##   ##   **
 **   ##  ## ##  ##   ##  ##  ##      ####     ###    ##   ######   ######    **
 **    ##  ###   ##   ##  ##  ##      ## ##      ##   ##   ##       ##        **
 **     #######   #####   ##   #####  ##  ##  ####    ##    #####   ##        **
 **           ##                                                    ##        **
 **                                                                           **
 **                                                ... make the atoms dance   **
 **                                                                           **
 **            Copyright (C) by CP2K developers group (2000-2022)             **
 **                      J. Chem. Phys. 152, 194103 (2020)                    **
 **                                                                           **
 *******************************************************************************


 TOTAL NUMBERS AND MAXIMUM NUMBERS

  Total number of            - Atomic kinds:                                   3
                             - Atoms:                                        129
                             - Shell sets:                                   129
                             - Shells:                                       613
                             - Primitive Cartesian functions:                647
                             - Cartesian basis functions:                   1657
                             - Spherical basis functions:                   1545

  Maximum angular momentum of- Orbital basis functions:                        2
                             - Local part of the GTH pseudopotential:          2
                             - Non-local part of the GTH pseudopotential:      1


 SCF PARAMETERS         Density guess:                                    ATOMIC
                        --------------------------------------------------------
                        max_scf:                                             400
                        max_scf_history:                                       0
                        max_diis:                                              4
                        --------------------------------------------------------
                        eps_scf:                                        3.00E-07
                        eps_scf_history:                                0.00E+00
                        eps_diis:                                       1.00E-01
                        eps_eigval:                                     1.00E-05
                        --------------------------------------------------------
                        level_shift [a.u.]:                             0.000000
                        added MOs                                       100  100
                        --------------------------------------------------------
                        Mixing method:                            BROYDEN_MIXING
                                                charge density mixing in g-space
                        --------------------------------------------------------
                        Smear method:                                FERMI_DIRAC
                        Electronic temperature [K]:                        300.0
                        Electronic temperature [a.u.]:                  9.50E-04
                        Accuracy threshold:                             1.00E-10
                        --------------------------------------------------------
                        Outer loop SCF in use 
                        No variables optimised in outer loop
                        eps_scf                                         1.00E-06
                        max_scf                                              150
                        DIIS optimization
                        DIIS buffer length                                     3
                        step_size                                       5.00E-01

 Spin 1

 Number of electrons:                                                          5
 Number of occupied orbitals:                                                  5
 Number of molecular orbitals:                                               105

 Spin 2

 Number of electrons:                                                          4
 Number of occupied orbitals:                                                  4
 Number of molecular orbitals:                                               104

 Number of orbital functions:                                               1545
 Number of independent orbital functions:                                   1545

 Extrapolation method: initial_guess


 SCF WAVEFUNCTION OPTIMIZATION

  Step     Update method      Time    Convergence         Total energy    Change
  ------------------------------------------------------------------------------
     1 NoMix/Diag. 0.10E+00    6.9     0.41796518       -47.1709767562 -4.72E+01
     2 Broy./Diag. 0.10E+00   13.0     0.00709021       -47.1337012577  3.73E-02
     3 Broy./Diag. 0.10E+00   13.4     0.02603472       -47.1753410303 -4.16E-02
     4 Broy./Diag. 0.10E+00   13.5     0.00067305       -47.1658985928  9.44E-03
     5 Broy./Diag. 0.10E+00   13.6     0.14905028       -47.1786176895 -1.27E-02
     6 Broy./Diag. 0.10E+00   13.8     0.02453347       -46.7036851546  4.75E-01
     7 Broy./Diag. 0.10E+00   14.0     0.00683284       -46.6537398381  4.99E-02
     8 Broy./Diag. 0.10E+00   14.3     0.00867751       -46.6632272479 -9.49E-03
     9 Broy./Diag. 0.10E+00   14.4     0.04204363       -46.6914406298 -2.82E-02
    10 Broy./Diag. 0.10E+00   14.8     0.01832810       -46.7903080166 -9.89E-02
    11 Broy./Diag. 0.10E+00   14.8     0.01030756       -46.8364962723 -4.62E-02
    12 Broy./Diag. 0.10E+00   14.8     0.02354990       -46.8991163937 -6.26E-02
    13 Broy./Diag. 0.10E+00   14.8     0.02624717       -47.0112242031 -1.12E-01
    14 Broy./Diag. 0.10E+00   14.8     0.00448773       -47.1240405824 -1.13E-01
    15 Broy./Diag. 0.10E+00   14.8     0.02057663       -47.1254802209 -1.44E-03
    16 Broy./Diag. 0.10E+00   14.7     0.01654316       -47.1941476525 -6.87E-02
    17 Broy./Diag. 0.10E+00   14.8     0.00044671       -47.2542711911 -6.01E-02
    18 Broy./Diag. 0.10E+00   14.8     0.00034578       -47.2455588151  8.71E-03
    19 Broy./Diag. 0.10E+00   14.8     0.00834233       -47.2383283418  7.23E-03
    20 Broy./Diag. 0.10E+00   14.8     0.00490768       -47.2725982075 -3.43E-02
    21 Broy./Diag. 0.10E+00   14.8     0.00063817       -47.3016496001 -2.91E-02
    22 Broy./Diag. 0.10E+00   14.8     0.00027160       -47.2997547025  1.89E-03
    23 Broy./Diag. 0.10E+00   14.7     0.00060175       -47.2797193472  2.00E-02
    24 Broy./Diag. 0.10E+00   14.8     0.01751723       -47.2706856206  9.03E-03
    25 Broy./Diag. 0.10E+00   14.8     0.00206491       -47.1971358539  7.35E-02
    26 Broy./Diag. 0.10E+00   14.8     0.00361898       -47.2023730658 -5.24E-03
    27 Broy./Diag. 0.10E+00   14.8     0.00250142       -47.2170139132 -1.46E-02
    28 Broy./Diag. 0.10E+00   14.8     0.01482929       -47.2162771241  7.37E-04
    29 Broy./Diag. 0.10E+00   14.9     0.00039090       -47.2641406487 -4.79E-02
    30 Broy./Diag. 0.10E+00   14.7     0.00561566       -47.2825467975 -1.84E-02
    31 Broy./Diag. 0.10E+00   14.8     0.00034379       -47.2554588535  2.71E-02
    32 Broy./Diag. 0.10E+00   14.8     0.00516990       -47.2552780264  1.81E-04
    33 Broy./Diag. 0.10E+00   14.8     0.00439648       -47.2713075617 -1.60E-02
    34 Broy./Diag. 0.10E+00   14.8     0.00499800       -47.2438176433  2.75E-02
    35 Broy./Diag. 0.10E+00   14.8     0.00336248       -47.2651789136 -2.14E-02
    36 Broy./Diag. 0.10E+00   14.9     0.00326291       -47.2477885294  1.74E-02
    37 Broy./Diag. 0.10E+00   14.7     0.00131423       -47.2270721928  2.07E-02
    38 Broy./Diag. 0.10E+00   14.8     0.00117565       -47.2171760429  9.90E-03
    39 Broy./Diag. 0.10E+00   14.8     0.00038989       -47.2186442380 -1.47E-03
    40 Broy./Diag. 0.10E+00   14.8     0.00124181       -47.2277600768 -9.12E-03
    41 Broy./Diag. 0.10E+00   14.8     0.00087540       -47.2267463049  1.01E-03
    42 Broy./Diag. 0.10E+00   14.8     0.00062374       -47.2476891282 -2.09E-02
    43 Broy./Diag. 0.10E+00   14.8     0.00027767       -47.2455878541  2.10E-03
    44 Broy./Diag. 0.10E+00   14.7     0.00031647       -47.2328813246  1.27E-02
    45 Broy./Diag. 0.10E+00   14.7     0.00082444       -47.2046624796  2.82E-02
    46 Broy./Diag. 0.10E+00   14.7     0.00023033       -47.1975644375  7.10E-03
    47 Broy./Diag. 0.10E+00   14.7     0.00045132       -47.1759531099  2.16E-02
    48 Broy./Diag. 0.10E+00   14.7     0.00095837       -47.1662659329  9.69E-03
    49 Broy./Diag. 0.10E+00   14.8     0.00075678       -47.1715196648 -5.25E-03
    50 Broy./Diag. 0.10E+00   14.8     0.00056376       -47.1969475246 -2.54E-02
    51 Broy./Diag. 0.10E+00   14.7     0.00011065       -47.2055082214 -8.56E-03
    52 Broy./Diag. 0.10E+00   14.7     0.00067988       -47.1942845671  1.12E-02
    53 Broy./Diag. 0.10E+00   14.7     0.00026797       -47.1778248791  1.65E-02
    54 Broy./Diag. 0.10E+00   14.7     0.00091738       -47.1653298369  1.25E-02
    55 Broy./Diag. 0.10E+00   14.7     0.00024840       -47.1657720248 -4.42E-04
    56 Broy./Diag. 0.10E+00   14.7     0.00011101       -47.1688978969 -3.13E-03
    57 Broy./Diag. 0.10E+00   14.7     0.00008419       -47.1668889293  2.01E-03
    58 Broy./Diag. 0.10E+00   14.6     0.00053158       -47.1655111321  1.38E-03
    59 Broy./Diag. 0.10E+00   14.6     0.00051489       -47.1634980573  2.01E-03
    60 Broy./Diag. 0.10E+00   14.6     0.00036275       -47.1636267395 -1.29E-04
    61 Broy./Diag. 0.10E+00   14.6     0.00021690       -47.1652999103 -1.67E-03
    62 Broy./Diag. 0.10E+00   14.7     0.00038289       -47.1674851609 -2.19E-03
    63 Broy./Diag. 0.10E+00   14.7     0.00005289       -47.1668077230  6.77E-04
    64 Broy./Diag. 0.10E+00   14.8     0.00008174       -47.1647436806  2.06E-03
    65 Broy./Diag. 0.10E+00   14.6     0.00021638       -47.1635514998  1.19E-03
    66 Broy./Diag. 0.10E+00   14.6     0.00008207       -47.1631994032  3.52E-04
    67 Broy./Diag. 0.10E+00   14.6     0.00006892       -47.1659138747 -2.71E-03
    68 Broy./Diag. 0.10E+00   14.6     0.00001421       -47.1667353829 -8.22E-04
    69 Broy./Diag. 0.10E+00   14.7     0.00004004       -47.1663972773  3.38E-04
    70 Broy./Diag. 0.10E+00   14.7     0.00003569       -47.1657231155  6.74E-04
    71 Broy./Diag. 0.10E+00   14.7     0.00001433       -47.1656343845  8.87E-05
    72 Broy./Diag. 0.10E+00   14.5     0.00002452       -47.1652983424  3.36E-04
    73 Broy./Diag. 0.10E+00   14.6     0.00003039       -47.1647241972  5.74E-04
    74 Broy./Diag. 0.10E+00   14.6     0.00003735       -47.1651018203 -3.78E-04
    75 Broy./Diag. 0.10E+00   14.6     0.00000544       -47.1653105898 -2.09E-04
    76 Broy./Diag. 0.10E+00   14.6     0.00001196       -47.1654095441 -9.90E-05
    77 Broy./Diag. 0.10E+00   14.7     0.00001633       -47.1653703505  3.92E-05
    78 Broy./Diag. 0.10E+00   14.7     0.00000864       -47.1650748160  2.96E-04
    79 Broy./Diag. 0.10E+00   14.6     0.00002947       -47.1650943970 -1.96E-05
    80 Broy./Diag. 0.10E+00   14.7     0.00000912       -47.1652076731 -1.13E-04
    81 Broy./Diag. 0.10E+00   14.7     0.00003460       -47.1653480239 -1.40E-04
    82 Broy./Diag. 0.10E+00   14.7     0.00001215       -47.1654405534 -9.25E-05
    83 Broy./Diag. 0.10E+00   14.7     0.00000130       -47.1653508096  8.97E-05
    84 Broy./Diag. 0.10E+00   14.7     0.00000493       -47.1652845604  6.62E-05
    85 Broy./Diag. 0.10E+00   14.8     0.00000362       -47.1652975088 -1.29E-05
    86 Broy./Diag. 0.10E+00   14.7     0.00000188       -47.1653328560 -3.53E-05
    87 Broy./Diag. 0.10E+00   14.7     0.00000968       -47.1653797763 -4.69E-05
    88 Broy./Diag. 0.10E+00   14.7     0.00000838       -47.1653404841  3.93E-05
    89 Broy./Diag. 0.10E+00   14.7     0.00000787       -47.1653290938  1.14E-05
    90 Broy./Diag. 0.10E+00   14.7     0.00008411       -47.1653456939 -1.66E-05
    91 Broy./Diag. 0.10E+00   14.8     0.00002173       -47.1655961537 -2.50E-04
    92 Broy./Diag. 0.10E+00   14.8     0.00012851       -47.1656118692 -1.57E-05
    93 Broy./Diag. 0.10E+00   14.7     0.00004016       -47.1661069368 -4.95E-04
    94 Broy./Diag. 0.10E+00   14.7     0.00000582       -47.1663644521 -2.58E-04
    95 Broy./Diag. 0.10E+00   14.6     0.00009729       -47.1663875205 -2.31E-05
    96 Broy./Diag. 0.10E+00   14.6     0.00002599       -47.1667827946 -3.95E-04
    97 Broy./Diag. 0.10E+00   14.5     0.00001517       -47.1668500097 -6.72E-05
    98 Broy./Diag. 0.10E+00   14.6     0.00003701       -47.1669183446 -6.83E-05
    99 Broy./Diag. 0.10E+00   14.6     0.00005665       -47.1667100010  2.08E-04
   100 Broy./Diag. 0.10E+00   14.5     0.00001747       -47.1664485002  2.62E-04
   101 Broy./Diag. 0.10E+00   14.5     0.00000700       -47.1663231259  1.25E-04
   102 Broy./Diag. 0.10E+00   14.4     0.00002250       -47.1663435043 -2.04E-05
   103 Broy./Diag. 0.10E+00   14.4     0.00000368       -47.1665095945 -1.66E-04
   104 Broy./Diag. 0.10E+00   14.4     0.00000455       -47.1663894914  1.20E-04
   105 Broy./Diag. 0.10E+00   14.4     0.00000470       -47.1661353569  2.54E-04
   106 Broy./Diag. 0.10E+00   14.5     0.00000439       -47.1658779637  2.57E-04
   107 Broy./Diag. 0.10E+00   14.3     0.00000377       -47.1657356150  1.42E-04
   108 Broy./Diag. 0.10E+00   14.4     0.00001528       -47.1656434548  9.22E-05
   109 Broy./Diag. 0.10E+00   14.5     0.00000715       -47.1660727900 -4.29E-04
   110 Broy./Diag. 0.10E+00   14.6     0.00002009       -47.1661086646 -3.59E-05
   111 Broy./Diag. 0.10E+00   14.5     0.00001828       -47.1659003530  2.08E-04
   112 Broy./Diag. 0.10E+00   14.5     0.00000322       -47.1659332176 -3.29E-05
   113 Broy./Diag. 0.10E+00   14.6     0.00000443       -47.1659302773  2.94E-06
   114 Broy./Diag. 0.10E+00   14.4     0.00000099       -47.1659382056 -7.93E-06
   115 Broy./Diag. 0.10E+00   14.5     0.00000876       -47.1659452762 -7.07E-06
   116 Broy./Diag. 0.10E+00   14.6     0.00004356       -47.1661721362 -2.27E-04
   117 Broy./Diag. 0.10E+00   14.6     0.00003821       -47.1660146188  1.58E-04
   118 Broy./Diag. 0.10E+00   14.6     0.00000771       -47.1657339245  2.81E-04
   119 Broy./Diag. 0.10E+00   14.7     0.00000713       -47.1655476984  1.86E-04
   120 Broy./Diag. 0.10E+00   14.7     0.00001596       -47.1654306287  1.17E-04
   121 Broy./Diag. 0.10E+00   14.6     0.00001039       -47.1653479108  8.27E-05
   122 Broy./Diag. 0.10E+00   14.6     0.00001842       -47.1654495446 -1.02E-04
   123 Broy./Diag. 0.10E+00   14.5     0.00000982       -47.1654906780 -4.11E-05
   124 Broy./Diag. 0.10E+00   14.5     0.00000851       -47.1654119576  7.87E-05
   125 Broy./Diag. 0.10E+00   14.5     0.00000954       -47.1653814843  3.05E-05
   126 Broy./Diag. 0.10E+00   14.5     0.00000404       -47.1654153991 -3.39E-05
   127 Broy./Diag. 0.10E+00   14.6     0.00000127       -47.1653933835  2.20E-05
   128 Broy./Diag. 0.10E+00   14.6     0.00002410       -47.1653647563  2.86E-05
   129 Broy./Diag. 0.10E+00   14.6     0.00000140       -47.1654446347 -7.99E-05
   130 Broy./Diag. 0.10E+00   14.6     0.00000270       -47.1654182923  2.63E-05
   131 Broy./Diag. 0.10E+00   14.6     0.00000436       -47.1654132273  5.07E-06
   132 Broy./Diag. 0.10E+00   14.6     0.00000283       -47.1653819273  3.13E-05
   133 Broy./Diag. 0.10E+00   14.7     0.00000888       -47.1653902154 -8.29E-06
   134 Broy./Diag. 0.10E+00   14.7     0.00000929       -47.1653641741  2.60E-05
   135 Broy./Diag. 0.10E+00   14.7     0.00004822       -47.1653403851  2.38E-05
   136 Broy./Diag. 0.10E+00   14.7     0.00002179       -47.1654922864 -1.52E-04
   137 Broy./Diag. 0.10E+00   14.7     0.00003746       -47.1653700554  1.22E-04
   138 Broy./Diag. 0.10E+00   14.7     0.00001803       -47.1655097777 -1.40E-04
   139 Broy./Diag. 0.10E+00   14.7     0.00001250       -47.1655880686 -7.83E-05
   140 Broy./Diag. 0.10E+00   14.8     0.00000079       -47.1655694512  1.86E-05
   141 Broy./Diag. 0.10E+00   14.8     0.00000742       -47.1655828514 -1.34E-05
   142 Broy./Diag. 0.10E+00   14.7     0.00001576       -47.1655788441  4.01E-06
   143 Broy./Diag. 0.10E+00   14.7     0.00001606       -47.1656390063 -6.02E-05
   144 Broy./Diag. 0.10E+00   14.7     0.00004472       -47.1655703949  6.86E-05
   145 Broy./Diag. 0.10E+00   14.7     0.00001761       -47.1657806204 -2.10E-04
   146 Broy./Diag. 0.10E+00   14.7     0.00001603       -47.1658633653 -8.27E-05
   147 Broy./Diag. 0.10E+00   14.8     0.00003941       -47.1659004812 -3.71E-05
   148 Broy./Diag. 0.10E+00   14.8     0.00002440       -47.1660244372 -1.24E-04
   149 Broy./Diag. 0.10E+00   14.7     0.00000987       -47.1659257620  9.87E-05
   150 Broy./Diag. 0.10E+00   14.7     0.00002735       -47.1659881976 -6.24E-05
   151 Broy./Diag. 0.10E+00   14.7     0.00000683       -47.1661006492 -1.12E-04
   152 Broy./Diag. 0.10E+00   14.7     0.00001465       -47.1660892151  1.14E-05
   153 Broy./Diag. 0.10E+00   14.7     0.00000147       -47.1660026016  8.66E-05
   154 Broy./Diag. 0.10E+00   14.7     0.00000492       -47.1659779991  2.46E-05
   155 Broy./Diag. 0.10E+00   14.7     0.00001003       -47.1658983594  7.96E-05
   156 Broy./Diag. 0.10E+00   14.6     0.00000947       -47.1659805994 -8.22E-05
   157 Broy./Diag. 0.10E+00   14.7     0.00001242       -47.1659523837  2.82E-05
   158 Broy./Diag. 0.10E+00   14.6     0.00000994       -47.1661129658 -1.61E-04
   159 Broy./Diag. 0.10E+00   14.6     0.00000752       -47.1661313271 -1.84E-05
   160 Broy./Diag. 0.10E+00   14.6     0.00001343       -47.1661070563  2.43E-05
   161 Broy./Diag. 0.10E+00   14.7     0.00001418       -47.1659561732  1.51E-04
   162 Broy./Diag. 0.10E+00   14.7     0.00000913       -47.1656453210  3.11E-04
   163 Broy./Diag. 0.10E+00   14.6     0.00000593       -47.1656298935  1.54E-05
   164 Broy./Diag. 0.10E+00   14.7     0.00002019       -47.1656305731 -6.80E-07
   165 Broy./Diag. 0.10E+00   14.7     0.00000091       -47.1657426131 -1.12E-04
   166 Broy./Diag. 0.10E+00   14.7     0.00000700       -47.1657535997 -1.10E-05
   167 Broy./Diag. 0.10E+00   14.7     0.00001771       -47.1657833544 -2.98E-05
   168 Broy./Diag. 0.10E+00   14.7     0.00000455       -47.1656846995  9.87E-05
   169 Broy./Diag. 0.10E+00   14.7     0.00000402       -47.1657674646 -8.28E-05
   170 Broy./Diag. 0.10E+00   14.6     0.00000190       -47.1657010178  6.64E-05
   171 Broy./Diag. 0.10E+00   14.7     0.00000246       -47.1656411138  5.99E-05
   172 Broy./Diag. 0.10E+00   14.7     0.00001073       -47.1656052717  3.58E-05
   173 Broy./Diag. 0.10E+00   14.7     0.00002235       -47.1655028333  1.02E-04
   174 Broy./Diag. 0.10E+00   14.7     0.00001731       -47.1656909575 -1.88E-04
   175 Broy./Diag. 0.10E+00   14.7     0.00000965       -47.1656824430  8.51E-06
   176 Broy./Diag. 0.10E+00   14.8     0.00000602       -47.1656882970 -5.85E-06
   177 Broy./Diag. 0.10E+00   14.7     0.00000297       -47.1655536162  1.35E-04
   178 Broy./Diag. 0.10E+00   14.7     0.00001385       -47.1654750688  7.85E-05
   179 Broy./Diag. 0.10E+00   14.7     0.00001032       -47.1654172867  5.78E-05
   180 Broy./Diag. 0.10E+00   14.7     0.00000413       -47.1654391557 -2.19E-05
   181 Broy./Diag. 0.10E+00   14.7     0.00000264       -47.1653310831  1.08E-04
   182 Broy./Diag. 0.10E+00   14.7     0.00000690       -47.1653409255 -9.84E-06
   183 Broy./Diag. 0.10E+00   14.8     0.00000691       -47.1654665439 -1.26E-04
   184 Broy./Diag. 0.10E+00   14.6     0.00000243       -47.1654320102  3.45E-05
   185 Broy./Diag. 0.10E+00   14.7     0.00001162       -47.1653794580  5.26E-05
   186 Broy./Diag. 0.10E+00   14.7     0.00000211       -47.1654118669 -3.24E-05
   187 Broy./Diag. 0.10E+00   14.7     0.00000218       -47.1654815409 -6.97E-05
   188 Broy./Diag. 0.10E+00   14.7     0.00000475       -47.1654400489  4.15E-05
   189 Broy./Diag. 0.10E+00   14.7     0.00001090       -47.1654097066  3.03E-05
   190 Broy./Diag. 0.10E+00   14.8     0.00000216       -47.1654339847 -2.43E-05
   191 Broy./Diag. 0.10E+00   14.6     0.00001135       -47.1653827848  5.12E-05
   192 Broy./Diag. 0.10E+00   14.7     0.00005250       -47.1653217224  6.11E-05
   193 Broy./Diag. 0.10E+00   14.7     0.00000473       -47.1654466257 -1.25E-04
   194 Broy./Diag. 0.10E+00   14.7     0.00000375       -47.1653785611  6.81E-05
   195 Broy./Diag. 0.10E+00   14.7     0.00000575       -47.1653508321  2.77E-05
   196 Broy./Diag. 0.10E+00   14.8     0.00000362       -47.1653226247  2.82E-05
   197 Broy./Diag. 0.10E+00   14.8     0.00000115       -47.1652844018  3.82E-05
   198 Broy./Diag. 0.10E+00   14.7     0.00000078       -47.1652826515  1.75E-06
   199 Broy./Diag. 0.10E+00   14.7     0.00000116       -47.1653176644 -3.50E-05
   200 Broy./Diag. 0.10E+00   14.7     0.00002789       -47.1653364013 -1.87E-05
   201 Broy./Diag. 0.10E+00   14.7     0.00000499       -47.1652851224  5.13E-05
   202 Broy./Diag. 0.10E+00   14.7     0.00000685       -47.1653063260 -2.12E-05
   203 Broy./Diag. 0.10E+00   14.7     0.00000283       -47.1652887855  1.75E-05
   204 Broy./Diag. 0.10E+00   14.8     0.00003796       -47.1652933251 -4.54E-06
   205 Broy./Diag. 0.10E+00   14.7     0.00002615       -47.1653821037 -8.88E-05
   206 Broy./Diag. 0.10E+00   14.7     0.00005430       -47.1652891601  9.29E-05
   207 Broy./Diag. 0.10E+00   14.7     0.00000925       -47.1654569286 -1.68E-04
   208 Broy./Diag. 0.10E+00   14.7     0.00002270       -47.1654391960  1.77E-05
   209 Broy./Diag. 0.10E+00   14.7     0.00002051       -47.1655044107 -6.52E-05
   210 Broy./Diag. 0.10E+00   15.0     0.00001870       -47.1655952320 -9.08E-05
   211 Broy./Diag. 0.10E+00   14.8     0.00002592       -47.1656969908 -1.02E-04
   212 Broy./Diag. 0.10E+00   14.7     0.00000619       -47.1658291146 -1.32E-04
[...]
 flops    13 x     9 x     8             21576672     100.0%      0.0%      0.0%
 flops     9 x    13 x     8             21576672     100.0%      0.0%      0.0%
 flops    13 x     9 x     9             24273756     100.0%      0.0%      0.0%
 flops     9 x    13 x     9             24273756     100.0%      0.0%      0.0%
 flops     9 x     9 x    80            106297920     100.0%      0.0%      0.0%
 flops     9 x     9 x    81            107626644     100.0%      0.0%      0.0%
 flops     5 x     5 x    76            119836800     100.0%      0.0%      0.0%
 flops    13 x     5 x     8            151600800     100.0%      0.0%      0.0%
 flops     5 x    13 x     8            152776000     100.0%      0.0%      0.0%
 flops     5 x     5 x    32            156211200     100.0%      0.0%      0.0%
 flops    13 x     5 x     9            170550900     100.0%      0.0%      0.0%
 flops     5 x    13 x     9            171873000     100.0%      0.0%      0.0%
 flops     9 x     9 x    64            174617856     100.0%      0.0%      0.0%
 flops     9 x     5 x    80            236217600     100.0%      0.0%      0.0%
 flops     9 x     5 x    81            239170320     100.0%      0.0%      0.0%
 flops     5 x     9 x    80            295272000     100.0%      0.0%      0.0%
 flops     5 x     9 x    81            298962900     100.0%      0.0%      0.0%
 flops     9 x     5 x    64            388039680     100.0%      0.0%      0.0%
 flops    13 x     9 x    76            397258992     100.0%      0.0%      0.0%
 flops     9 x    13 x    76            397258992     100.0%      0.0%      0.0%
 flops     5 x     9 x    64            485049600     100.0%      0.0%      0.0%
 flops    13 x     9 x    32            517840128     100.0%      0.0%      0.0%
 flops     9 x    13 x    32            517840128     100.0%      0.0%      0.0%
 flops     9 x     9 x    96            523853568     100.0%      0.0%      0.0%
 flops     9 x     5 x    96           1164119040     100.0%      0.0%      0.0%
 flops     5 x     9 x    96           1455148800     100.0%      0.0%      0.0%
 flops     5 x     5 x    80           2362176000     100.0%      0.0%      0.0%
 flops     5 x     5 x    81           2391703200     100.0%      0.0%      0.0%
 flops    13 x     5 x    76           2791198800     100.0%      0.0%      0.0%
 flops     5 x    13 x    76           2812836000     100.0%      0.0%      0.0%
 flops    13 x    13 x     8           3475959552     100.0%      0.0%      0.0%
 flops    13 x     5 x    32           3638419200     100.0%      0.0%      0.0%
 flops     5 x    13 x    32           3666624000     100.0%      0.0%      0.0%
 flops     5 x     5 x    64           3880396800     100.0%      0.0%      0.0%
 flops    13 x    13 x     9           3910454496     100.0%      0.0%      0.0%
 flops    13 x     9 x    80           7830613440     100.0%      0.0%      0.0%
 flops     9 x    13 x    80           7830613440     100.0%      0.0%      0.0%
 flops    13 x     9 x    81           7928496108     100.0%      0.0%      0.0%
 flops     9 x    13 x    81           7928496108     100.0%      0.0%      0.0%
 flops     5 x     5 x    96          11641190400     100.0%      0.0%      0.0%
 flops    13 x     9 x    64          12863515392     100.0%      0.0%      0.0%
 flops     9 x    13 x    64          12863515392     100.0%      0.0%      0.0%
 flops    13 x     9 x    96          38590546176     100.0%      0.0%      0.0%
 flops     9 x    13 x    96          38590546176     100.0%      0.0%      0.0%
 flops    13 x     5 x    80          55019016000     100.0%      0.0%      0.0%
 flops     5 x    13 x    80          55445520000     100.0%      0.0%      0.0%
 flops    13 x     5 x    81          55706753700     100.0%      0.0%      0.0%
 flops     5 x    13 x    81          56138589000     100.0%      0.0%      0.0%
 flops    13 x    13 x    76          63997644672     100.0%      0.0%      0.0%
 flops    13 x    13 x    32          83423029248     100.0%      0.0%      0.0%
 flops    13 x     5 x    64          90380908800     100.0%      0.0%      0.0%
 flops     5 x    13 x    64          91081536000     100.0%      0.0%      0.0%
 flops    13 x     5 x    96         271142726400     100.0%      0.0%      0.0%
 flops     5 x    13 x    96         273244608000     100.0%      0.0%      0.0%
 flops    13 x    13 x    80        1261496471040     100.0%      0.0%      0.0%
 flops    13 x    13 x    81        1277265176928     100.0%      0.0%      0.0%
 flops    13 x    13 x    64        2072287107072     100.0%      0.0%      0.0%
 flops    13 x    13 x    96        6216861321216     100.0%      0.0%      0.0%
 flops inhomo. stacks                           0       0.0%      0.0%      0.0%
 flops total                        12.106899E+12     100.0%      0.0%      0.0%
 flops max/rank                    786.944375E+09     100.0%      0.0%      0.0%
 matmuls inhomo. stacks                         0       0.0%      0.0%      0.0%
 matmuls total                          495784392     100.0%      0.0%      0.0%
 number of processed stacks               5257376     100.0%      0.0%      0.0%
 average stack size                                    94.3       0.0       0.0
 marketing flops                    19.262704E+12
 -------------------------------------------------------------------------------
 # multiplications                          17294
 max memory usage/rank               3.226599E+09
 # max total images/rank                        1
 # max 3D layers                                1
 # MPI messages exchanged                 1660224
 MPI messages size (bytes):
  total size                       423.648002E+09
  min size                          24.576000E+03
  max size                         298.752000E+03
  average size                     255.175203E+03
 MPI breakdown and total messages size (bytes):
             size <=      128                   0                        0
       128 < size <=     8192                   0                        0
      8192 < size <=    32768               10848                284922720
     32768 < size <=   131072               32544               3217950720
    131072 < size <=  4194304             1616832             420143245920
   4194304 < size <= 16777216                   0                        0
  16777216 < size                               0                        0
 -------------------------------------------------------------------------------
 -                                                                             -
 -                      DBCSR MESSAGE PASSING PERFORMANCE                      -
 -                                                                             -
 -------------------------------------------------------------------------------
 ROUTINE             CALLS      AVE VOLUME [Bytes]
 MP_Bcast               73                     12.
 MP_Allreduce       121227                      8.
 MP_Alltoall        484268                 283757.
 MP_ISend           276704                 103487.
 MP_IRecv           276704                  91284.
 -------------------------------------------------------------------------------

 -------------------------------------------------------------------------------
 -                                                                             -
 -                                DBM STATISTICS                               -
 -                                                                             -
 -------------------------------------------------------------------------------
    M  x    N  x    K                                          COUNT     PERCENT
 -------------------------------------------------------------------------------

 -------------------------------------------------------------------------------
 -                                                                             -
 -                                GRID STATISTICS                              -
 -                                                                             -
 -------------------------------------------------------------------------------
 LP    KERNEL             BACKEND                              COUNT     PERCENT
 4     collocate general  REF                              892645400      40.98%
 4     integrate general  REF                              892335812      40.97%
 3     collocate general  REF                              173553600       7.97%
 3     integrate general  REF                              173493408       7.97%
 2     collocate general  REF                               23043600       1.06%
 2     integrate general  REF                               23035608       1.06%
 0     collocate general  REF                                   4128       0.00%
 -------------------------------------------------------------------------------

 MEMORY| Estimated peak process memory [MiB]                                3078

 -------------------------------------------------------------------------------
 -                                                                             -
 -                         MESSAGE PASSING PERFORMANCE                         -
 -                                                                             -
 -------------------------------------------------------------------------------

 ROUTINE             CALLS      AVE VOLUME [Bytes]
 MP_Group               16
 MP_Bcast            26054                  33913.
 MP_Allreduce       164557                    131.
 MP_Sync             17310
 MP_Alltoall        216210               63572272.
 MP_SendRecv        726528                 677574.
 MP_ISendRecv       518820                 482112.
 MP_Wait           2110213
 MP_ISend          1383820                2018874.
 MP_IRecv          1383820                2018874.
 MP_Recv              8512                 394945.
 -------------------------------------------------------------------------------


 -------------------------------------------------------------------------------
 -                                                                             -
 -                           R E F E R E N C E S                               -
 -                                                                             -
 -------------------------------------------------------------------------------
 
 CP2K version 2023.1, the CP2K developers group (2023).
 CP2K is freely available from https://www.cp2k.org/ .

 Kuehne,Thomas D.; Iannuzzi,Marcella; Del Ben,Mauro;
 Rybkin,Vladimir V.; Seewald,Patrick; Stein,Frederick; Laino,Teodoro;
 Khaliullin,Rustam Z.; Schuett,Ole; Schiffmann,Florian; Golze,Dorothea;
 Wilhelm,Jan; Chulkov,Sergey; Bani-Hashemian,Mohammad Hossein;
 Weber,Valery; Borstnik,Urban; Taillefumier,Mathieu;
 Jakobovits,Alice Shoshana; Lazzaro,Alfio; Pabst,Hans; Mueller,Tiziano;
 Schade,Robert; Guidon,Manuel; Andermatt,Samuel; Holmberg,Nico;
 Schenter,Gregory K.; Hehn,Anna; Bussy,Augustin; Belleflamme,Fabian;
 Tabacchi,Gloria; Gloess,Andreas; Lass,Michael; Bethune,Iain;
 Mundy,Christopher J.; Plessl,Christian; Watkins,Matt;
 VandeVondele,Joost; Krack,Matthias; Hutter,Juerg. 
 The Journal of Chemical Physics, 152 (19), (2020). 
 CP2K: An electronic structure and molecular dynamics software package -
 Quickstep: Efficient and accurate electronic structure calculations.
 https://doi.org/10.1063/5.0007045

 Goerigk, Lars; Hansen, Andreas; Bauer, Christoph; Ehrlich, Stephan;
 Najibi, Asim; Grimme, Stefan. , 19 (48), (2017). 
 A look at the density functional theory zoo with the advanced GMTKN55 database
 for general main group thermochemistry, kinetics and noncovalent interactions.
 https://doi.org/10.1039/C7CP04913G

 Schuett, Ole; Messmer, Peter; Hutter, Juerg; VandeVondele, Joost. 
 Electronic Structure Calculations on Graphics Processing Units, John
 Wiley & Sons, Ltd, 173-190 (2016). 
 GPU-Accelerated Sparse Matrix-Matrix Multiplication for
 Linear Scaling Density Functional Theory.
 https://doi.org/10.1002/9781118670712.ch8

 Borstnik, U; VandeVondele, J; Weber, V; Hutter, J. 
 PARALLEL COMPUTING, 40 (5-6), 47-58 (2014). 
 Sparse matrix multiplication: The distributed block-compressed sparse
 row library.
 https://doi.org/10.1016/j.parco.2014.03.012

 Hutter, J; Iannuzzi, M; Schiffmann, F; VandeVondele, J. 
 WIREs Comput Mol Sci., 4 (1), 15-25 (2014). 
 CP2K: atomistic simulations of condensed matter systems.
 https://doi.org/10.1002/wcms.1159

 Marek, A; Blum, V; Johanni, R; Havu, V; Lang, B; Auckenthaler, T;
 Heinecke, A; Bungartz, H; Lederer, H. 
 Journal of Physics: Condensed Matter, 26 (21), (2014). 
 The ELPA library: scalable parallel eigenvalue solutions for
 electronic structure
 theory and computational science.
 https://doi.org/10.1088/0953-8984/26/21/213201

 Grimme, S; Ehrlich, S; Goerigk, L. 
 JOURNAL OF COMPUTATIONAL CHEMISTRY, 32, 1456 (2011). 
 Effect of the damping function in dispersion corrected density functional theory.
 https://doi.org/10.1002/jcc.21759

 Grimme, S; Antony, J; Ehrlich, S; Krieg, H. 
 JOURNAL OF CHEMICAL PHYSICS, 132 (15), 154104 (2010). 
 A consistent and accurate ab initio parametrization of density
 functional dispersion correction (DFT-D) for the 94 elements H-Pu.
 https://doi.org/10.1063/1.3382344

 VandeVondele, J; Hutter, J. 
 JOURNAL OF CHEMICAL PHYSICS, 127 (11), 114105 (2007). 
 Gaussian basis sets for accurate calculations on molecular systems in
 gas and condensed phases.
 https://doi.org/10.1063/1.2770708

 Krack, M. 
 THEORETICAL CHEMISTRY ACCOUNTS, 114 (1-3), 145-152 (2005). 
 Pseudopotentials for H to Kr optimized for gradient-corrected
 exchange-correlation functionals.
 https://doi.org/10.1007/s00214-005-0655-y

 VandeVondele, J; Krack, M; Mohamed, F; Parrinello, M; Chassaing, T;
 Hutter, J. COMPUTER PHYSICS COMMUNICATIONS, 167 (2), 103-128 (2005). 
 QUICKSTEP: Fast and accurate density functional calculations using a
 mixed Gaussian and plane waves approach.
 https://doi.org/10.1016/j.cpc.2004.12.014

 Frigo, M; Johnson, SG. 
 PROCEEDINGS OF THE IEEE, 93 (2), 216-231 (2005). 
 The design and implementation of FFTW3.
 https://doi.org/10.1109/JPROC.2004.840301

 Hartwigsen, C; Goedecker, S; Hutter, J. 
 PHYSICAL REVIEW B, 58 (7), 3641-3662 (1998). 
 Relativistic separable dual-space Gaussian pseudopotentials from H to Rn.
 https://doi.org/10.1103/PhysRevB.58.3641

 Lippert, G; Hutter, J; Parrinello, M. 
 MOLECULAR PHYSICS, 92 (3), 477-487 (1997). 
 A hybrid Gaussian and plane wave density functional scheme.
 https://doi.org/10.1080/002689797170220

 Perdew, JP; Burke, K; Ernzerhof, M. 
 PHYSICAL REVIEW LETTERS, 77 (18), 3865-3868 (1996). 
 Generalized gradient approximation made simple.
 https://doi.org/10.1103/PhysRevLett.77.3865

 Goedecker, S; Teter, M; Hutter, J. 
 PHYSICAL REVIEW B, 54 (3), 1703-1710 (1996). 
 Separable dual-space Gaussian pseudopotentials.
 https://doi.org/10.1103/PhysRevB.54.1703


 -------------------------------------------------------------------------------
 -                                                                             -
 -                                T I M I N G                                  -
 -                                                                             -
 -------------------------------------------------------------------------------
 SUBROUTINE                       CALLS  ASD         SELF TIME        TOTAL TIME
                                MAXIMUM       AVERAGE  MAXIMUM  AVERAGE  MAXIMUM
 CP2K                                 1  1.0      0.0      0.1 130165.5 130165.5
 qs_energies                          3  2.0      0.0      0.0 130161.5 130161.5
 scf_env_do_scf                       3  3.0      0.0      0.0 130144.6 130144.7
 scf_env_do_scf_inner_loop         8647  4.0      0.3      1.6 130144.5 130144.7
 qs_ks_update_qs_env               8647  5.0      0.1      0.1  54218.9  54220.3
 rebuild_ks_matrix                 8647  6.0      0.0      0.0  54211.6  54212.9
 qs_ks_build_kohn_sham_matrix      8647  7.0      1.2      1.4  54211.6  54212.8
 qs_rho_update_rho_low             8650  5.0      0.1      0.1  34197.3  34200.0
 calculate_rho_elec               17300  6.0    227.8    230.0  34197.2  34199.9
 pw_transfer                     198868  9.0     16.9     18.5  31869.2  32193.5
 fft_wrap_pw1pw2                 181574 10.0      2.4      2.7  31506.4  31830.1
 fft_wrap_pw1pw2_250              77792 10.2   2139.0   2497.7  28409.3  28939.1
 sum_up_and_integrate              8647  8.0    406.7    414.5  28873.2  28880.0
 integrate_v_rspace               17294  9.0      0.5      0.6  28466.5  28489.4
 density_rs2pw                    17300  7.0      1.2      1.3  21832.4  25717.8
 gspace_mixing                     8624  5.0    227.5    230.1  25214.7  25214.7
 fft3d_ps                        181574 12.0  13791.7  14891.8  23052.2  23224.2
 qs_vxc_create                     8647  8.0      0.3      0.3  20594.1  20680.7
 xc_vxc_pw_create                  8647  9.0   1088.7   1155.8  20593.8  20680.4
 grid_integrate_task_list         17294 10.0  11880.4  17215.1  11880.4  17215.1
 broyden_mixing                    8624  6.0  16914.5  17021.2  17107.0  17177.7
 grid_collocate_task_list         17300  7.0  11915.8  16909.7  11915.8  16909.7
 qs_scf_new_mos                    8647  5.0      0.2      0.2  16479.1  16491.6
 xc_rho_set_and_dset_create        8647 10.0   1040.9   1117.3  15506.9  15863.0
 eigensolver                      17294  6.0      1.2      1.6  15846.8  15847.6
 rs_pw_transfer                  138379  9.5      2.3      2.8  10190.9  14076.8
 xc_functional_eval                8647 11.0      0.1      0.2  11181.6  11471.4
 pbe_lsd_eval                      8647 12.0  11181.5  11471.3  11181.5  11471.3
 potential_pw2rs                  17294 10.0     24.0     25.7  11237.0  11257.2
 cp_fm_diag_elpa                  17294  7.0      0.1      0.1  10673.4  10676.3
 cp_fm_diag_elpa_base             17294  8.0  10600.9  10624.9  10667.5  10667.5
 mp_waitany                     1383820 11.5   6304.8  10179.0   6304.8  10179.0
 rs_pw_transfer_RS2PW_250         17303  9.0    779.6    872.4   6135.5  10032.2
 mp_alltoall_d11v                242140  9.3   5411.7   9737.2   5411.7   9737.2
 rs_gather_matrices               17294 10.0      9.6     11.2   5348.6   9671.9
 xc_pw_derive                    103764 11.0      0.5      0.5   5225.9   6866.1
 pw_nn_compose_r                 103764 12.0   4507.5   4584.2   5225.4   6865.5
 x_to_yz                          95077 13.3   4111.1   4175.6   5565.3   5941.1
 cp_fm_triangular_multiply        51882  7.0   5106.4   5132.5   5106.4   5132.5
 xc_pw_divergence                 17294 10.0      0.3      0.3   3019.7   4507.0
 yz_to_x                          86497 12.6   2430.9   2525.1   3690.9   3986.9
 mp_alltoall_z22v                181574 14.0   2714.1   3345.0   2714.1   3345.0
 pw_gather_p                      86497 11.6   3081.8   3165.9   3081.8   3165.9
 pw_scatter_p                     95077 12.3   3025.9   3069.5   3025.9   3069.5
 fft_wrap_pw1pw2_90               34594 11.5    175.0    194.5   2685.7   2995.3
 -------------------------------------------------------------------------------

 The number of warnings for this run is : 3
 
 -------------------------------------------------------------------------------
  **** **** ******  **  PROGRAM ENDED AT                 2025-06-14 15:46:53.155
 ***** ** ***  *** **   PROGRAM RAN ON                                sebnode102
 **    ****   ******    PROGRAM RAN BY                                    luehrs
 ***** **    ** ** **   PROGRAM PROCESS ID                                774126
  **** **  *******  **  PROGRAM STOPPED IN /home/luehrs/PhD/Sodium_batteries/Sod
                                           ium-graphene-edge/Zig_zag_2/Hydrogen
