 DBCSR| CPU Multiplication driver                                           BLAS (U)
 DBCSR| Multrec recursion limit                                              512 (U)
 DBCSR| Multiplication stack size                                           1000 (D)
 DBCSR| Maximum elements for images                                    UNLIMITED (U)
 DBCSR| Multiplicative factor virtual images                                   1 (U)
 DBCSR| Use multiplication densification                                       T (D)
 DBCSR| Multiplication size stacks                                             3 (U)
 DBCSR| Use memory pool for CPU allocation                                     F (U)
 DBCSR| Number of 3D layers                                               SINGLE (U)
 DBCSR| Use MPI memory allocation                                              F (U)
 DBCSR| Use RMA algorithm                                                      F (U)
 DBCSR| Use Communication thread                                               T (U)
 DBCSR| Communication thread load                                             87 (D)
 DBCSR| MPI: My process id                                                     0
 DBCSR| MPI: Number of processes                                              16
 DBCSR| OMP: Current number of threads                                         1
 DBCSR| OMP: Max number of threads                                             1
 DBCSR| Split modifier for TAS multiplication algorithm                  1.0E+00 (U)


  **** **** ******  **  PROGRAM STARTED AT               2025-06-04 02:50:59.605
 ***** ** ***  *** **   PROGRAM STARTED ON                            sebnode105
 **    ****   ******    PROGRAM STARTED BY                                luehrs
 ***** **    ** ** **   PROGRAM PROCESS ID                                720636
  **** **  *******  **  PROGRAM STARTED IN /home/luehrs/PhD/Sodium_batteries/Sod
                                           ium-graphene-edge/Zig_zag_2/Hydrogen

 CP2K| version string:                                       CP2K version 2023.1
 CP2K| source code revision number:                                  git:b888bd8
 CP2K| cp2kflags: omp libint fftw3 libxc elpa parallel scalapack spglib         
 CP2K| is freely available from                            https://www.cp2k.org/
 CP2K| Program compiled at                          Tue Jan 10 19:52:03 UTC 2023
 CP2K| Program compiled on                                            x86-ubc-01
 CP2K| Program compiled for                                Linux-x86_64-gfortran
 CP2K| Data directory path                                       /usr/share/cp2k
 CP2K| Input file name                                         input.zig-zag.inp

 GLOBAL| Force Environment number                                              1
 GLOBAL| Basis set file name                                      ./BASIS_MOLOPT
 GLOBAL| Potential file name                                    ./GTH_POTENTIALS
 GLOBAL| MM Potential file name                                     MM_POTENTIAL
 GLOBAL| Coordinate file name              graphene_hydrogen_zig-zag_relaxed.xyz
 GLOBAL| Method name                                                        CP2K
 GLOBAL| Project name                                  graphene_zig_zag_BSSE_PBE
 GLOBAL| Run type                                                           BSSE
 GLOBAL| FFT library                                                       FFTW3
 GLOBAL| Diagonalization library                                            ELPA
 GLOBAL| DGEMM library                                                      BLAS
 GLOBAL| Minimum number of eigenvectors for ELPA usage                        16
 GLOBAL| Orthonormality check for eigenvectors                          DISABLED
 GLOBAL| Matrix multiplication library                                 ScaLAPACK
 GLOBAL| All-to-all communication in single precision                          F
 GLOBAL| FFTs using library dependent lengths                                  F
 GLOBAL| Grid backend                                                       AUTO
 GLOBAL| Global print level                                                  LOW
 GLOBAL| MPI I/O enabled                                                       T
 GLOBAL| Total number of message passing processes                            16
 GLOBAL| Number of threads for this process                                    1
 GLOBAL| This output is from process                                           0
 GLOBAL| Stack size for threads created by OpenMP (OMP_STACKSIZE)        default
 GLOBAL| CPU model name                Intel(R) Xeon(R) CPU E5-2620 v4 @ 2.10GHz

 MEMORY| system memory details [Kb]
 MEMORY|                        rank 0           min           max       average
 MEMORY| MemTotal             65831280      65831280      65831280      65831280
 MEMORY| MemFree              61666784      61666784      61666784      61666784
 MEMORY| Buffers                208964        208964        208964        208964
 MEMORY| Cached                1887480       1887480       1887480       1887480
 MEMORY| Slab                   256400        256400        256400        256400
 MEMORY| SReclaimable           132812        132812        132812        132812
 MEMORY| MemLikelyFree        63896040      63896040      63896040      63896040


 GENERATE|  Preliminary Number of Bonds generated:                             0
 GENERATE|  Achieved consistency in connectivity generation.

 *******************************************************************************
 *******************************************************************************
 **                                                                           **
 **     #####                         ##              ##                      **
 **    ##   ##            ##          ##              ##                      **
 **   ##     ##                       ##            ######                    **
 **   ##     ##  ##   ##  ##   #####  ##  ##   ####   ##    #####    #####    **
 **   ##     ##  ##   ##  ##  ##      ## ##   ##      ##   ##   ##  ##   ##   **
 **   ##  ## ##  ##   ##  ##  ##      ####     ###    ##   ######   ######    **
 **    ##  ###   ##   ##  ##  ##      ## ##      ##   ##   ##       ##        **
 **     #######   #####   ##   #####  ##  ##  ####    ##    #####   ##        **
 **           ##                                                    ##        **
 **                                                                           **
 **                                                ... make the atoms dance   **
 **                                                                           **
 **            Copyright (C) by CP2K developers group (2000-2022)             **
 **                      J. Chem. Phys. 152, 194103 (2020)                    **
 **                                                                           **
 *******************************************************************************


 TOTAL NUMBERS AND MAXIMUM NUMBERS

  Total number of            - Atomic kinds:                                   3
                             - Atoms:                                        129
                             - Shell sets:                                   129
                             - Shells:                                       613
                             - Primitive Cartesian functions:                647
                             - Cartesian basis functions:                   1657
                             - Spherical basis functions:                   1545

  Maximum angular momentum of- Orbital basis functions:                        2
                             - Local part of the GTH pseudopotential:          2
                             - Non-local part of the GTH pseudopotential:      1


 SCF PARAMETERS         Density guess:                                    ATOMIC
                        --------------------------------------------------------
                        max_scf:                                             400
                        max_scf_history:                                       0
                        max_diis:                                              4
                        --------------------------------------------------------
                        eps_scf:                                        3.00E-07
                        eps_scf_history:                                0.00E+00
                        eps_diis:                                       1.00E-01
                        eps_eigval:                                     1.00E-05
                        --------------------------------------------------------
                        level_shift [a.u.]:                             0.000000
                        added MOs                                       100  100
                        --------------------------------------------------------
                        Mixing method:                            BROYDEN_MIXING
                                                charge density mixing in g-space
                        --------------------------------------------------------
                        Smear method:                                FERMI_DIRAC
                        Electronic temperature [K]:                        300.0
                        Electronic temperature [a.u.]:                  9.50E-04
                        Accuracy threshold:                             1.00E-10
                        --------------------------------------------------------
                        Outer loop SCF in use 
                        No variables optimised in outer loop
                        eps_scf                                         1.00E-06
                        max_scf                                              150
                        DIIS optimization
                        DIIS buffer length                                     3
                        step_size                                       5.00E-01

 -------------------------------------------------------------------------------
 -                                                                             -
 -  BSSE CALCULATION         FRAGMENT CONF: 10        FRAGMENT SUBCONF: 10     -
 -                           CHARGE =     0           MULTIPLICITY =     0     -
 -                                                                             -
 -                 ATOM INDEX                              ATOM NAME           -
 -                 ----------                              ---------           -
 -                      1                                   C                  -
 -                      2                                   C                  -
 -                      3                                   C                  -
 -                      4                                   C                  -
 -                      5                                   C                  -
 -                      6                                   C                  -
 -                      7                                   C                  -
 -                      8                                   C                  -
 -                      9                                   C                  -
 -                     10                                   C                  -
 -                     11                                   C                  -
 -                     12                                   C                  -
 -                     13                                   C                  -
 -                     14                                   C                  -
 -                     15                                   C                  -
 -                     16                                   C                  -
 -                     17                                   C                  -
 -                     18                                   C                  -
 -                     19                                   C                  -
 -                     20                                   C                  -
 -                     21                                   C                  -
 -                     22                                   C                  -
 -                     23                                   C                  -
 -                     24                                   C                  -
 -                     25                                   C                  -
 -                     26                                   C                  -
 -                     27                                   C                  -
 -                     28                                   C                  -
 -                     29                                   C                  -
 -                     30                                   C                  -
 -                     31                                   C                  -
 -                     32                                   C                  -
 -                     33                                   C                  -
 -                     34                                   C                  -
 -                     35                                   C                  -
 -                     36                                   C                  -
 -                     37                                   C                  -
 -                     38                                   C                  -
 -                     39                                   C                  -
 -                     40                                   C                  -
 -                     41                                   C                  -
 -                     42                                   C                  -
 -                     43                                   C                  -
 -                     44                                   C                  -
 -                     45                                   C                  -
 -                     46                                   C                  -
 -                     47                                   C                  -
 -                     48                                   C                  -
 -                     49                                   C                  -
 -                     50                                   C                  -
 -                     51                                   C                  -
 -                     52                                   C                  -
 -                     53                                   C                  -
 -                     54                                   C                  -
 -                     55                                   C                  -
 -                     56                                   C                  -
 -                     57                                   C                  -
 -                     58                                   C                  -
 -                     59                                   C                  -
 -                     60                                   C                  -
 -                     61                                   C                  -
 -                     62                                   C                  -
 -                     63                                   C                  -
 -                     64                                   C                  -
 -                     65                                   C                  -
 -                     66                                   C                  -
 -                     67                                   C                  -
 -                     68                                   C                  -
 -                     69                                   C                  -
 -                     70                                   C                  -
 -                     71                                   C                  -
 -                     72                                   C                  -
 -                     73                                   C                  -
 -                     74                                   C                  -
 -                     75                                   C                  -
 -                     76                                   C                  -
 -                     77                                   C                  -
 -                     78                                   C                  -
 -                     79                                   C                  -
 -                     80                                   C                  -
 -                     81                                   C                  -
 -                     82                                   C                  -
 -                     83                                   C                  -
 -                     84                                   C                  -
 -                     85                                   C                  -
 -                     86                                   C                  -
 -                     87                                   C                  -
 -                     88                                   C                  -
 -                     89                                   C                  -
 -                     90                                   C                  -
 -                     91                                   C                  -
 -                     92                                   C                  -
 -                     93                                   C                  -
 -                     94                                   C                  -
 -                     95                                   C                  -
 -                     96                                   C                  -
 -                     97                                   C                  -
 -                     98                                   C                  -
 -                     99                                   C                  -
 -                    100                                   C                  -
 -                    101                                   C                  -
 -                    102                                   C                  -
 -                    103                                   C                  -
 -                    104                                   C                  -
 -                    105                                   C                  -
 -                    106                                   C                  -
 -                    107                                   C                  -
 -                    108                                   C                  -
 -                    109                                   C                  -
 -                    110                                   C                  -
 -                    111                                   C                  -
 -                    112                                   C                  -
 -                    113                                   H                  -
 -                    114                                   H                  -
 -                    115                                   H                  -
 -                    116                                   H                  -
 -                    117                                   H                  -
 -                    118                                   H                  -
 -                    119                                   H                  -
 -                    120                                   H                  -
 -                    121                                   H                  -
 -                    122                                   H                  -
 -                    123                                   H                  -
 -                    124                                   H                  -
 -                    125                                   H                  -
 -                    126                                   H                  -
 -                    127                                   H                  -
 -                    128                                   H                  -
 -------------------------------------------------------------------------------

 *******************************************************************************
 *******************************************************************************
 **                                                                           **
 **     #####                         ##              ##                      **
 **    ##   ##            ##          ##              ##                      **
 **   ##     ##                       ##            ######                    **
 **   ##     ##  ##   ##  ##   #####  ##  ##   ####   ##    #####    #####    **
 **   ##     ##  ##   ##  ##  ##      ## ##   ##      ##   ##   ##  ##   ##   **
 **   ##  ## ##  ##   ##  ##  ##      ####     ###    ##   ######   ######    **
 **    ##  ###   ##   ##  ##  ##      ## ##      ##   ##   ##       ##        **
 **     #######   #####   ##   #####  ##  ##  ####    ##    #####   ##        **
 **           ##                                                    ##        **
 **                                                                           **
 **                                                ... make the atoms dance   **
 **                                                                           **
 **            Copyright (C) by CP2K developers group (2000-2022)             **
 **                      J. Chem. Phys. 152, 194103 (2020)                    **
 **                                                                           **
 *******************************************************************************


 TOTAL NUMBERS AND MAXIMUM NUMBERS

  Total number of            - Atomic kinds:                                   2
                             - Atoms:                                        128
                             - Shell sets:                                   128
                             - Shells:                                       608
                             - Primitive Cartesian functions:                640
                             - Cartesian basis functions:                   1648
                             - Spherical basis functions:                   1536

  Maximum angular momentum of- Orbital basis functions:                        2
                             - Local part of the GTH pseudopotential:          2
                             - Non-local part of the GTH pseudopotential:      0


 SCF PARAMETERS         Density guess:                                    ATOMIC
                        --------------------------------------------------------
                        max_scf:                                             400
                        max_scf_history:                                       0
                        max_diis:                                              4
                        --------------------------------------------------------
                        eps_scf:                                        3.00E-07
                        eps_scf_history:                                0.00E+00
                        eps_diis:                                       1.00E-01
                        eps_eigval:                                     1.00E-05
                        --------------------------------------------------------
                        level_shift [a.u.]:                             0.000000
                        added MOs                                       100  100
                        --------------------------------------------------------
                        Mixing method:                            BROYDEN_MIXING
                                                charge density mixing in g-space
                        --------------------------------------------------------
                        Smear method:                                FERMI_DIRAC
                        Electronic temperature [K]:                        300.0
                        Electronic temperature [a.u.]:                  9.50E-04
                        Accuracy threshold:                             1.00E-10
                        --------------------------------------------------------
                        Outer loop SCF in use 
                        No variables optimised in outer loop
                        eps_scf                                         1.00E-06
                        max_scf                                              150
                        DIIS optimization
                        DIIS buffer length                                     3
                        step_size                                       5.00E-01

 Spin 1

 Number of electrons:                                                        232
 Number of occupied orbitals:                                                232
 Number of molecular orbitals:                                               332

 Spin 2

 Number of electrons:                                                        232
 Number of occupied orbitals:                                                232
 Number of molecular orbitals:                                               332

 Number of orbital functions:                                               1536
 Number of independent orbital functions:                                   1536

 Extrapolation method: initial_guess


 SCF WAVEFUNCTION OPTIMIZATION

  Step     Update method      Time    Convergence         Total energy    Change
  ------------------------------------------------------------------------------
     1 NoMix/Diag. 0.10E+00    7.5     0.46261726      -640.1357834731 -6.40E+02
     2 Broy./Diag. 0.10E+00   12.8     0.04953746      -616.8113397618  2.33E+01
     3 Broy./Diag. 0.10E+00   13.1     0.13719850      -628.8486851061 -1.20E+01
     4 Broy./Diag. 0.10E+00   13.2     0.05307817      -640.9681873917 -1.21E+01
     5 Broy./Diag. 0.10E+00   13.3     0.03330457      -644.7217425529 -3.75E+00
     6 Broy./Diag. 0.10E+00   13.5     0.10235744      -645.2385640351 -5.17E-01
     7 Broy./Diag. 0.10E+00   13.7     0.02508443      -645.6852275445 -4.47E-01
     8 Broy./Diag. 0.10E+00   14.0     0.02333912      -645.8542046914 -1.69E-01
     9 Broy./Diag. 0.10E+00   14.2     0.00853711      -646.2632668165 -4.09E-01
    10 Broy./Diag. 0.10E+00   14.5     0.01000923      -646.4202086984 -1.57E-01
    11 Broy./Diag. 0.10E+00   14.5     0.00596409      -646.6205896950 -2.00E-01
    12 Broy./Diag. 0.10E+00   14.5     0.00232938      -646.7590219472 -1.38E-01
    13 Broy./Diag. 0.10E+00   14.5     0.00330409      -646.9163197183 -1.57E-01
    14 Broy./Diag. 0.10E+00   14.5     0.00054873      -647.0833518126 -1.67E-01
    15 Broy./Diag. 0.10E+00   14.6     0.00123250      -647.0633761138  2.00E-02
    16 Broy./Diag. 0.10E+00   14.5     0.00043094      -647.1115829059 -4.82E-02
    17 Broy./Diag. 0.10E+00   14.5     0.00136657      -647.1116546206 -7.17E-05
    18 Broy./Diag. 0.10E+00   14.5     0.00012098      -647.1265339539 -1.49E-02
    19 Broy./Diag. 0.10E+00   14.6     0.00059518      -647.1254608327  1.07E-03
    20 Broy./Diag. 0.10E+00   14.6     0.00052163      -647.1227296214  2.73E-03
    21 Broy./Diag. 0.10E+00   14.6     0.00021501      -647.1161385788  6.59E-03
    22 Broy./Diag. 0.10E+00   14.6     0.00024276      -647.1111115857  5.03E-03
    23 Broy./Diag. 0.10E+00   14.5     0.00017907      -647.1071773231  3.93E-03
    24 Broy./Diag. 0.10E+00   14.5     0.00017047      -647.1119327206 -4.76E-03
    25 Broy./Diag. 0.10E+00   14.6     0.00013910      -647.1256287851 -1.37E-02
    26 Broy./Diag. 0.10E+00   14.5     0.00014234      -647.1349108444 -9.28E-03
    27 Broy./Diag. 0.10E+00   14.6     0.00032537      -647.1412256870 -6.31E-03
    28 Broy./Diag. 0.10E+00   14.6     0.00007425      -647.1481642095 -6.94E-03
    29 Broy./Diag. 0.10E+00   14.6     0.00037906      -647.1479299203  2.34E-04
    30 Broy./Diag. 0.10E+00   14.6     0.00025975      -647.1483654650 -4.36E-04
    31 Broy./Diag. 0.10E+00   14.7     0.00033052      -647.1477705675  5.95E-04
    32 Broy./Diag. 0.10E+00   14.7     0.00020434      -647.1465947308  1.18E-03
    33 Broy./Diag. 0.10E+00   14.7     0.00020017      -647.1462828475  3.12E-04
    34 Broy./Diag. 0.10E+00   14.8     0.00011329      -647.1458161815  4.67E-04
    35 Broy./Diag. 0.10E+00   14.9     0.00006216      -647.1452577374  5.58E-04
    36 Broy./Diag. 0.10E+00   14.9     0.00010579      -647.1450185452  2.39E-04
    37 Broy./Diag. 0.10E+00   14.9     0.00019718      -647.1463923065 -1.37E-03
    38 Broy./Diag. 0.10E+00   15.0     0.00032242      -647.1464042758 -1.20E-05
    39 Broy./Diag. 0.10E+00   15.0     0.00007675      -647.1468083814 -4.04E-04
    40 Broy./Diag. 0.10E+00   15.0     0.00007284      -647.1468353048 -2.69E-05
    41 Broy./Diag. 0.10E+00   15.0     0.00007432      -647.1468248875  1.04E-05
    42 Broy./Diag. 0.10E+00   15.0     0.00004769      -647.1468093815  1.55E-05
    43 Broy./Diag. 0.10E+00   15.0     0.00033902      -647.1467009913  1.08E-04
    44 Broy./Diag. 0.10E+00   15.0     0.00033631      -647.1466890037  1.20E-05
    45 Broy./Diag. 0.10E+00   15.0     0.00013764      -647.1466827225  6.28E-06
    46 Broy./Diag. 0.10E+00   15.0     0.00025694      -647.1465412314  1.41E-04
    47 Broy./Diag. 0.10E+00   15.0     0.00010231      -647.1465229058  1.83E-05
    48 Broy./Diag. 0.10E+00   15.0     0.00023988      -647.1465076134  1.53E-05
    49 Broy./Diag. 0.10E+00   15.0     0.00024228      -647.1465707325 -6.31E-05
    50 Broy./Diag. 0.10E+00   15.1     0.00001940      -647.1467733568 -2.03E-04
    51 Broy./Diag. 0.10E+00   15.0     0.00003990      -647.1469122639 -1.39E-04
    52 Broy./Diag. 0.10E+00   15.1     0.00000804      -647.1470416113 -1.29E-04
    53 Broy./Diag. 0.10E+00   15.0     0.00011060      -647.1470931237 -5.15E-05
    54 Broy./Diag. 0.10E+00   15.1     0.00007093      -647.1471532568 -6.01E-05
    55 Broy./Diag. 0.10E+00   15.1     0.00003350      -647.1471712773 -1.80E-05
    56 Broy./Diag. 0.10E+00   15.1     0.00003743      -647.1471876230 -1.63E-05
    57 Broy./Diag. 0.10E+00   15.1     0.00011568      -647.1471427773  4.48E-05
    58 Broy./Diag. 0.10E+00   15.0     0.00005021      -647.1471555854 -1.28E-05
    59 Broy./Diag. 0.10E+00   15.0     0.00002646      -647.1471387900  1.68E-05
    60 Broy./Diag. 0.10E+00   15.1     0.00002689      -647.1471506063 -1.18E-05
    61 Broy./Diag. 0.10E+00   15.1     0.00010677      -647.1471580663 -7.46E-06
    62 Broy./Diag. 0.10E+00   15.1     0.00001462      -647.1471608855 -2.82E-06
    63 Broy./Diag. 0.10E+00   15.1     0.00004292      -647.1471437185  1.72E-05
    64 Broy./Diag. 0.10E+00   15.1     0.00002985      -647.1471464577 -2.74E-06
    65 Broy./Diag. 0.10E+00   15.0     0.00000994      -647.1471402025  6.26E-06
    66 Broy./Diag. 0.10E+00   15.0     0.00001731      -647.1471399046  2.98E-07
    67 Broy./Diag. 0.10E+00   15.1     0.00007020      -647.1471402928 -3.88E-07
    68 Broy./Diag. 0.10E+00   15.1     0.00008837      -647.1471512717 -1.10E-05
    69 Broy./Diag. 0.10E+00   15.1     0.00003303      -647.1471556738 -4.40E-06
    70 Broy./Diag. 0.10E+00   15.1     0.00006218      -647.1471068527  4.88E-05
    71 Broy./Diag. 0.10E+00   15.1     0.00009583      -647.1470531854  5.37E-05
    72 Broy./Diag. 0.10E+00   15.1     0.00007448      -647.1470796886 -2.65E-05
    73 Broy./Diag. 0.10E+00   15.1     0.00002344      -647.1471032037 -2.35E-05
    74 Broy./Diag. 0.10E+00   15.1     0.00006756      -647.1470969115  6.29E-06
    75 Broy./Diag. 0.10E+00   15.1     0.00002082      -647.1470888407  8.07E-06
    76 Broy./Diag. 0.10E+00   15.0     0.00002575      -647.1470682175  2.06E-05
    77 Broy./Diag. 0.10E+00   15.1     0.00004038      -647.1470593355  8.88E-06
    78 Broy./Diag. 0.10E+00   15.1     0.00008461      -647.1470564961  2.84E-06
    79 Broy./Diag. 0.10E+00   15.0     0.00005605      -647.1470576966 -1.20E-06
    80 Broy./Diag. 0.10E+00   15.0     0.00005892      -647.1470511236  6.57E-06
    81 Broy./Diag. 0.10E+00   15.1     0.00002329      -647.1470607089 -9.59E-06
    82 Broy./Diag. 0.10E+00   15.0     0.00001039      -647.1470568063  3.90E-06
    83 Broy./Diag. 0.10E+00   15.1     0.00004455      -647.1470600752 -3.27E-06
    84 Broy./Diag. 0.10E+00   15.1     0.00000212      -647.1470568981  3.18E-06
    85 Broy./Diag. 0.10E+00   15.1     0.00001035      -647.1470518151  5.08E-06
    86 Broy./Diag. 0.10E+00   15.0     0.00000045      -647.1470602584 -8.44E-06
    87 Broy./Diag. 0.10E+00   15.0     0.00004322      -647.1470661194 -5.86E-06
    88 Broy./Diag. 0.10E+00   15.0     0.00001602      -647.1470634592  2.66E-06
    89 Broy./Diag. 0.10E+00   15.1     0.00001173      -647.1470729599 -9.50E-06
    90 Broy./Diag. 0.10E+00   15.1     0.00002392      -647.1470759559 -3.00E-06
    91 Broy./Diag. 0.10E+00   15.1     0.00003449      -647.1470721498  3.81E-06
    92 Broy./Diag. 0.10E+00   15.2     0.00005302      -647.1470665112  5.64E-06
    93 Broy./Diag. 0.10E+00   15.1     0.00005922      -647.1470800265 -1.35E-05
    94 Broy./Diag. 0.10E+00   15.1     0.00004069      -647.1470388264  4.12E-05
    95 Broy./Diag. 0.10E+00   15.1     0.00009669      -647.1470675079 -2.87E-05
    96 Broy./Diag. 0.10E+00   15.1     0.00000797      -647.1470322710  3.52E-05
    97 Broy./Diag. 0.10E+00   15.1     0.00001454      -647.1470306170  1.65E-06
    98 Broy./Diag. 0.10E+00   15.1     0.00001993      -647.1470436168 -1.30E-05
    99 Broy./Diag. 0.10E+00   15.1     0.00000285      -647.1470319956  1.16E-05
   100 Broy./Diag. 0.10E+00   15.0     0.00003310      -647.1470217412  1.03E-05
   101 Broy./Diag. 0.10E+00   15.0     0.00001398      -647.1470223737 -6.33E-07
   102 Broy./Diag. 0.10E+00   15.0     0.00000606      -647.1470232675 -8.94E-07
   103 Broy./Diag. 0.10E+00   15.0     0.00000835      -647.1470217563  1.51E-06
   104 Broy./Diag. 0.10E+00   15.1     0.00001320      -647.1470276968 -5.94E-06
   105 Broy./Diag. 0.10E+00   15.1     0.00001069      -647.1470239838  3.71E-06
   106 Broy./Diag. 0.10E+00   15.1     0.00002246      -647.1470203294  3.65E-06
   107 Broy./Diag. 0.10E+00   15.0     0.00000756      -647.1470219301 -1.60E-06
   108 Broy./Diag. 0.10E+00   15.0     0.00000868      -647.1470194860  2.44E-06
   109 Broy./Diag. 0.10E+00   15.0     0.00001502      -647.1470236995 -4.21E-06
   110 Broy./Diag. 0.10E+00   15.0     0.00000522      -647.1470301156 -6.42E-06
   111 Broy./Diag. 0.10E+00   15.0     0.00000903      -647.1470240947  6.02E-06
   112 Broy./Diag. 0.10E+00   15.1     0.00000191      -647.1470173120  6.78E-06
   113 Broy./Diag. 0.10E+00   15.1     0.00004207      -647.1470215782 -4.27E-06
   114 Broy./Diag. 0.10E+00   15.0     0.00002337      -647.1470201246  1.45E-06
   115 Broy./Diag. 0.10E+00   15.0     0.00000464      -647.1470179683  2.16E-06
   116 Broy./Diag. 0.10E+00   15.0     0.00002549      -647.1470126117  5.36E-06
   117 Broy./Diag. 0.10E+00   15.0     0.00005426      -647.1469995133  1.31E-05
   118 Broy./Diag. 0.10E+00   15.0     0.00005849      -647.1470399975 -4.05E-05
   119 Broy./Diag. 0.10E+00   15.0     0.00002596      -647.1470228920  1.71E-05
   120 Broy./Diag. 0.10E+00   15.1     0.00007446      -647.1470128429  1.00E-05
   121 Broy./Diag. 0.10E+00   15.0     0.00004177      -647.1470290633 -1.62E-05
   122 Broy./Diag. 0.10E+00   15.0     0.00003923      -647.1470284086  6.55E-07
   123 Broy./Diag. 0.10E+00   15.0     0.00006096      -647.1470320599 -3.65E-06
   124 Broy./Diag. 0.10E+00   15.0     0.00004974      -647.1470389809 -6.92E-06
   125 Broy./Diag. 0.10E+00   15.0     0.00001670      -647.1470333357  5.65E-06
   126 Broy./Diag. 0.10E+00   15.0     0.00001121      -647.1470387170 -5.38E-06
   127 Broy./Diag. 0.10E+00   15.1     0.00000837      -647.1470338431  4.87E-06
   128 Broy./Diag. 0.10E+00   15.0     0.00001594      -647.1470292594  4.58E-06
   129 Broy./Diag. 0.10E+00   15.0     0.00000453      -647.1470339544 -4.70E-06
   130 Broy./Diag. 0.10E+00   15.0     0.00004896      -647.1470299536  4.00E-06
   131 Broy./Diag. 0.10E+00   15.0     0.00003071      -647.1470315705 -1.62E-06
   132 Broy./Diag. 0.10E+00   15.0     0.00006205      -647.1470325437 -9.73E-07
   133 Broy./Diag. 0.10E+00   15.1     0.00004886      -647.1470315862  9.58E-07
   134 Broy./Diag. 0.10E+00   15.1     0.00006066      -647.1470362949 -4.71E-06
   135 Broy./Diag. 0.10E+00   15.0     0.00003259      -647.1470356614  6.34E-07
   136 Broy./Diag. 0.10E+00   15.0     0.00005364      -647.1470144515  2.12E-05
   137 Broy./Diag. 0.10E+00   15.0     0.00004726      -647.1470120702  2.38E-06
   138 Broy./Diag. 0.10E+00   15.0     0.00002560      -647.1470020723  1.00E-05
   139 Broy./Diag. 0.10E+00   15.0     0.00001462      -647.1469895818  1.25E-05
   140 Broy./Diag. 0.10E+00   15.0     0.00000351      -647.1469844978  5.08E-06
   141 Broy./Diag. 0.10E+00   15.0     0.00002940      -647.1469737085  1.08E-05
   142 Broy./Diag. 0.10E+00   15.0     0.00001357      -647.1469734140  2.94E-07
   143 Broy./Diag. 0.10E+00   15.0     0.00000157      -647.1469764833 -3.07E-06
   144 Broy./Diag. 0.10E+00   15.0     0.00000686      -647.1469757341  7.49E-07
   145 Broy./Diag. 0.10E+00   15.0     0.00006188      -647.1469706632  5.07E-06
   146 Broy./Diag. 0.10E+00   15.0     0.00006100      -647.1469624170  8.25E-06
   147 Broy./Diag. 0.10E+00   15.0     0.00001562      -647.1469583031  4.11E-06
   148 Broy./Diag. 0.10E+00   15.0     0.00003818      -647.1469529278  5.38E-06
   149 Broy./Diag. 0.10E+00   15.0     0.00002686      -647.1469590884 -6.16E-06
   150 Broy./Diag. 0.10E+00   15.0     0.00002382      -647.1469569151  2.17E-06
   151 Broy./Diag. 0.10E+00   15.0     0.00002594      -647.1469572508 -3.36E-07
   152 Broy./Diag. 0.10E+00   15.0     0.00001765      -647.1469584286 -1.18E-06
   153 Broy./Diag. 0.10E+00   15.0     0.00000124      -647.1469593698 -9.41E-07
   154 Broy./Diag. 0.10E+00   15.0     0.00000981      -647.1469506611  8.71E-06
   155 Broy./Diag. 0.10E+00   15.0     0.00000800      -647.1469441396  6.52E-06
   156 Broy./Diag. 0.10E+00   15.0     0.00000154      -647.1469439147  2.25E-07
   157 Broy./Diag. 0.10E+00   15.0     0.00000580      -647.1469409646  2.95E-06
   158 Broy./Diag. 0.10E+00   15.0     0.00001081      -647.1469346445  6.32E-06
   159 Broy./Diag. 0.10E+00   15.0     0.00000828      -647.1469319539  2.69E-06
   160 Broy./Diag. 0.10E+00   15.0     0.00000247      -647.1469291498  2.80E-06
   161 Broy./Diag. 0.10E+00   15.0     0.00000548      -647.1469287601  3.90E-07
   162 Broy./Diag. 0.10E+00   15.0     0.00000219      -647.1469300905 -1.33E-06
   163 Broy./Diag. 0.10E+00   15.0     0.00000601      -647.1469280842  2.01E-06
   164 Broy./Diag. 0.10E+00   15.0     0.00000438      -647.1469248958  3.19E-06
   165 Broy./Diag. 0.10E+00   15.0     0.00000644      -647.1469241312  7.65E-07
   166 Broy./Diag. 0.10E+00   15.0     0.00001835      -647.1469224341  1.70E-06
   167 Broy./Diag. 0.10E+00   15.0     0.00001246      -647.1469226347 -2.01E-07
   168 Broy./Diag. 0.10E+00   15.0     0.00000745      -647.1469217485  8.86E-07
   169 Broy./Diag. 0.10E+00   15.0     0.00000942      -647.1469198363  1.91E-06
   170 Broy./Diag. 0.10E+00   15.0     0.00000846      -647.1469209486 -1.11E-06
   171 Broy./Diag. 0.10E+00   15.0     0.00000523      -647.1469199689  9.80E-07
   172 Broy./Diag. 0.10E+00   15.0     0.00000396      -647.1469202901 -3.21E-07
   173 Broy./Diag. 0.10E+00   15.1     0.00004024      -647.1469260622 -5.77E-06
   174 Broy./Diag. 0.10E+00   15.0     0.00001274      -647.1469220587  4.00E-06
   175 Broy./Diag. 0.10E+00   15.0     0.00001919      -647.1469176335  4.43E-06
   176 Broy./Diag. 0.10E+00   15.1     0.00001296      -647.1469126509  4.98E-06
   177 Broy./Diag. 0.10E+00   15.0     0.00001193      -647.1469117171  9.34E-07
   178 Broy./Diag. 0.10E+00   15.0     0.00000306      -647.1469128503 -1.13E-06
   179 Broy./Diag. 0.10E+00   15.0     0.00001352      -647.1469150415 -2.19E-06
   180 Broy./Diag. 0.10E+00   15.0     0.00000449      -647.1469153176 -2.76E-07
   181 Broy./Diag. 0.10E+00   15.0     0.00000861      -647.1469143512  9.66E-07
   182 Broy./Diag. 0.10E+00   15.0     0.00000482      -647.1469165108 -2.16E-06
   183 Broy./Diag. 0.10E+00   15.0     0.00000364      -647.1469194985 -2.99E-06
   184 Broy./Diag. 0.10E+00   15.0     0.00000309      -647.1469215509 -2.05E-06
   185 Broy./Diag. 0.10E+00   15.0     0.00000551      -647.1469217092 -1.58E-07
   186 Broy./Diag. 0.10E+00   15.0     0.00000158      -647.1469205804  1.13E-06
   187 Broy./Diag. 0.10E+00   15.0     0.00000335      -647.1469195266  1.05E-06
   188 Broy./Diag. 0.10E+00   15.0     0.00000548      -647.1469194032  1.23E-07
   189 Broy./Diag. 0.10E+00   15.0     0.00000296      -647.1469181501  1.25E-06
   190 Broy./Diag. 0.10E+00   15.0     0.00000204      -647.1469172518  8.98E-07
   191 Broy./Diag. 0.10E+00   15.0     0.00000227      -647.1469165737  6.78E-07
   192 Broy./Diag. 0.10E+00   15.0     0.00000194      -647.1469170379 -4.64E-07
   193 Broy./Diag. 0.10E+00   15.0     0.00000207      -647.1469171479 -1.10E-07
   194 Broy./Diag. 0.10E+00   15.0     0.00000482      -647.1469180412 -8.93E-07
   195 Broy./Diag. 0.10E+00   15.0     0.00000052      -647.1469170631  9.78E-07
   196 Broy./Diag. 0.10E+00   15.0     0.00000230      -647.1469186044 -1.54E-06
   197 Broy./Diag. 0.10E+00   15.1     0.00000731      -647.1469195740 -9.70E-07
   198 Broy./Diag. 0.10E+00   15.0     0.00000271      -647.1469197618 -1.88E-07
   199 Broy./Diag. 0.10E+00   15.0     0.00000534      -647.1469205797 -8.18E-07
   200 Broy./Diag. 0.10E+00   15.0     0.00001353      -647.1469218893 -1.31E-06
   201 Broy./Diag. 0.10E+00   15.0     0.00000999      -647.1469224958 -6.07E-07
   202 Broy./Diag. 0.10E+00   15.0     0.00001659      -647.1469218748  6.21E-07
   203 Broy./Diag. 0.10E+00   15.0     0.00000499      -647.1469217957  7.91E-08
   204 Broy./Diag. 0.10E+00   15.1     0.00001079      -647.1469237303 -1.93E-06
   205 Broy./Diag. 0.10E+00   15.0     0.00003203      -647.1469270957 -3.37E-06
   206 Broy./Diag. 0.10E+00   15.0     0.00001213      -647.1469273711 -2.75E-07
   207 Broy./Diag. 0.10E+00   15.0     0.00001072      -647.1469259980  1.37E-06
   208 Broy./Diag. 0.10E+00   15.0     0.00000215      -647.1469263545 -3.57E-07
   209 Broy./Diag. 0.10E+00   15.0     0.00000759      -647.1469257877  5.67E-07
   210 Broy./Diag. 0.10E+00   15.0     0.00001124      -647.1469251806  6.07E-07
   211 Broy./Diag. 0.10E+00   15.0     0.00000589      -647.1469249126  2.68E-07
   212 Broy./Diag. 0.10E+00   15.0     0.00000326      -647.1469254701 -5.58E-07
   213 Broy./Diag. 0.10E+00   15.0     0.00000372      -647.1469255994 -1.29E-07
   214 Broy./Diag. 0.10E+00   15.0     0.00000083      -647.1469249416  6.58E-07
   215 Broy./Diag. 0.10E+00   15.0     0.00000199      -647.1469241706  7.71E-07
   216 Broy./Diag. 0.10E+00   15.0     0.00000269      -647.1469240986  7.21E-08
   217 Broy./Diag. 0.10E+00   15.0     0.00000552      -647.1469232784  8.20E-07
   218 Broy./Diag. 0.10E+00   15.1     0.00000730      -647.1469230265  2.52E-07
   219 Broy./Diag. 0.10E+00   15.0     0.00000718      -647.1469209849  2.04E-06
   220 Broy./Diag. 0.10E+00   15.0     0.00000405      -647.1469212068 -2.22E-07
   221 Broy./Diag. 0.10E+00   15.0     0.00001416      -647.1469209158  2.91E-07
   222 Broy./Diag. 0.10E+00   15.0     0.00001261      -647.1469217335 -8.18E-07
   223 Broy./Diag. 0.10E+00   15.0     0.00000521      -647.1469219197 -1.86E-07
   224 Broy./Diag. 0.10E+00   15.0     0.00000166      -647.1469212770  6.43E-07
   225 Broy./Diag. 0.10E+00   15.0     0.00000122      -647.1469209421  3.35E-07
   226 Broy./Diag. 0.10E+00   15.0     0.00000599      -647.1469211292 -1.87E-07
   227 Broy./Diag. 0.10E+00   15.0     0.00000489      -647.1469203848  7.44E-07
   228 Broy./Diag. 0.10E+00   15.0     0.00000374      -647.1469204801 -9.53E-08
   229 Broy./Diag. 0.10E+00   15.0     0.00000966      -647.1469210271 -5.47E-07
   230 Broy./Diag. 0.10E+00   15.0     0.00000367      -647.1469203643  6.63E-07
   231 Broy./Diag. 0.10E+00   15.0     0.00000423      -647.1469198127  5.52E-07
   232 Broy./Diag. 0.10E+00   15.0     0.00000485      -647.1469194525  3.60E-07
   233 Broy./Diag. 0.10E+00   15.0     0.00000142      -647.1469192897  1.63E-07
   234 Broy./Diag. 0.10E+00   15.0     0.00000311      -647.1469196611 -3.71E-07
   235 Broy./Diag. 0.10E+00   15.0     0.00000601      -647.1469203047 -6.44E-07
   236 Broy./Diag. 0.10E+00   15.0     0.00000794      -647.1469198357  4.69E-07
   237 Broy./Diag. 0.10E+00   15.0     0.00000138      -647.1469199979 -1.62E-07
   238 Broy./Diag. 0.10E+00   15.0     0.00000432      -647.1469202150 -2.17E-07
   239 Broy./Diag. 0.10E+00   15.0     0.00000113      -647.1469199841  2.31E-07
   240 Broy./Diag. 0.10E+00   15.0     0.00000295      -647.1469199404  4.37E-08
   241 Broy./Diag. 0.10E+00   15.0     0.00000635      -647.1469201327 -1.92E-07
   242 Broy./Diag. 0.10E+00   15.0     0.00000731      -647.1469197882  3.45E-07
   243 Broy./Diag. 0.10E+00   15.0     0.00000136      -647.1469195256  2.63E-07
   244 Broy./Diag. 0.10E+00   15.0     0.00000799      -647.1469185786  9.47E-07
   245 Broy./Diag. 0.10E+00   15.0     0.00000730      -647.1469182099  3.69E-07
   246 Broy./Diag. 0.10E+00   15.0     0.00002319      -647.1469179406  2.69E-07
   247 Broy./Diag. 0.10E+00   15.0     0.00000319      -647.1469188643 -9.24E-07
   248 Broy./Diag. 0.10E+00   15.0     0.00000121      -647.1469187304  1.34E-07
   249 Broy./Diag. 0.10E+00   15.0     0.00000557      -647.1469189640 -2.34E-07
   250 Broy./Diag. 0.10E+00   15.0     0.00000217      -647.1469189723 -8.27E-09
   251 Broy./Diag. 0.10E+00   15.0     0.00000254      -647.1469194126 -4.40E-07
   252 Broy./Diag. 0.10E+00   15.0     0.00000786      -647.1469197559 -3.43E-07
   253 Broy./Diag. 0.10E+00   15.0     0.00000138      -647.1469197020  5.39E-08
   254 Broy./Diag. 0.10E+00   15.0     0.00000027      -647.1469195871  1.15E-07

  *** SCF run converged in   254 steps ***


  Electronic density on regular grids:       -463.9999999998        0.0000000002
  Core density on regular grids:              463.9999999996       -0.0000000004
  Total charge density on r-space grids:       -0.0000000002
  Total charge density g-space grids:          -0.0000000002

  Overlap energy of the core charge distribution:               0.00002384473555
  Self energy of the core charge distribution:              -1516.08847113961406
  Core Hamiltonian energy:                                    475.07496377390856
  Hartree energy:                                             595.08578076799643
  Exchange-correlation energy:                               -201.08509504689499
  Dispersion energy:                                           -0.13111841499409
  Electronic entropic energy:                                  -0.00300337222083
  Fermi energy:                                                -0.12614360068721

  Total energy:                                              -647.14691958709136

  outer SCF iter =    1 RMS gradient =   0.27E-06 energy =       -647.1469195871
  outer SCF loop converged in   1 iterations or  254 steps


  Integrated absolute spin density  :                               0.0018570968
  WARNING: S**2 computation does not yet treat fractional occupied orbitals

 *** WARNING in qs_loc_utils.F:1500 :: User requested the calculation of ***
 *** the localized wavefunction but the section LOCALIZE was not         ***
 *** specified. Localization will not be performed!                      ***


 -------------------------------------------------------------------------------
 -                                                                             -
 -  BSSE CALCULATION         FRAGMENT CONF: 01        FRAGMENT SUBCONF: 01     -
 -                           CHARGE =     0           MULTIPLICITY =     0     -
 -                                                                             -
 -                 ATOM INDEX                              ATOM NAME           -
 -                 ----------                              ---------           -
 -                    129                                   Na                 -
 -------------------------------------------------------------------------------

 *******************************************************************************
 *******************************************************************************
 **                                                                           **
 **     #####                         ##              ##                      **
 **    ##   ##            ##          ##              ##                      **
 **   ##     ##                       ##            ######                    **
 **   ##     ##  ##   ##  ##   #####  ##  ##   ####   ##    #####    #####    **
 **   ##     ##  ##   ##  ##  ##      ## ##   ##      ##   ##   ##  ##   ##   **
 **   ##  ## ##  ##   ##  ##  ##      ####     ###    ##   ######   ######    **
 **    ##  ###   ##   ##  ##  ##      ## ##      ##   ##   ##       ##        **
 **     #######   #####   ##   #####  ##  ##  ####    ##    #####   ##        **
 **           ##                                                    ##        **
 **                                                                           **
 **                                                ... make the atoms dance   **
 **                                                                           **
 **            Copyright (C) by CP2K developers group (2000-2022)             **
 **                      J. Chem. Phys. 152, 194103 (2020)                    **
 **                                                                           **
 *******************************************************************************

 *** WARNING in qs_environment.F:1470 :: More ADDED_MOs requested for beta ***
 *** spin than available.                                                  ***


 *** WARNING in qs_environment.F:1486 :: More added MOs requested than     ***
 *** available. The full set of unoccupied MOs will be used. Use           ***
 *** 'ADDED_MOS -1' to always use all available MOs and to get rid of this ***
 *** warning.                                                              ***



 TOTAL NUMBERS AND MAXIMUM NUMBERS

  Total number of            - Atomic kinds:                                   1
                             - Atoms:                                          1
                             - Shell sets:                                     1
                             - Shells:                                         5
                             - Primitive Cartesian functions:                  7
                             - Cartesian basis functions:                      9
                             - Spherical basis functions:                      9

  Maximum angular momentum of- Orbital basis functions:                        1
                             - Local part of the GTH pseudopotential:          2
                             - Non-local part of the GTH pseudopotential:      1


 SCF PARAMETERS         Density guess:                                    ATOMIC
                        --------------------------------------------------------
                        max_scf:                                             400
                        max_scf_history:                                       0
                        max_diis:                                              4
                        --------------------------------------------------------
                        eps_scf:                                        3.00E-07
                        eps_scf_history:                                0.00E+00
                        eps_diis:                                       1.00E-01
                        eps_eigval:                                     1.00E-05
                        --------------------------------------------------------
                        level_shift [a.u.]:                             0.000000
                        added MOs                                         4    5
                        --------------------------------------------------------
                        Mixing method:                            BROYDEN_MIXING
                                                charge density mixing in g-space
                        --------------------------------------------------------
                        Smear method:                                FERMI_DIRAC
                        Electronic temperature [K]:                        300.0
                        Electronic temperature [a.u.]:                  9.50E-04
                        Accuracy threshold:                             1.00E-10
                        --------------------------------------------------------
                        Outer loop SCF in use 
                        No variables optimised in outer loop
                        eps_scf                                         1.00E-06
                        max_scf                                              150
                        DIIS optimization
                        DIIS buffer length                                     3
                        step_size                                       5.00E-01

 Spin 1

 Number of electrons:                                                          5
 Number of occupied orbitals:                                                  5
 Number of molecular orbitals:                                                 9

 Spin 2

 Number of electrons:                                                          4
 Number of occupied orbitals:                                                  4
 Number of molecular orbitals:                                                 9

 Number of orbital functions:                                                  9
 Number of independent orbital functions:                                      9

 Extrapolation method: initial_guess


 SCF WAVEFUNCTION OPTIMIZATION

  Step     Update method      Time    Convergence         Total energy    Change
  ------------------------------------------------------------------------------
     1 NoMix/Diag. 0.10E+00    3.4     0.42045640       -47.1709767562 -4.72E+01
     2 Broy./Diag. 0.10E+00    7.7     0.00687767       -47.1305456423  4.04E-02
     3 Broy./Diag. 0.10E+00    8.0     0.02090031       -47.1719018464 -4.14E-02
     4 Broy./Diag. 0.10E+00    8.1     0.00033150       -47.1630908555  8.81E-03
     5 Broy./Diag. 0.10E+00    8.2     0.12610053       -47.1735997212 -1.05E-02
     6 Broy./Diag. 0.10E+00    8.4     0.01763902       -46.7612976106  4.12E-01
     7 Broy./Diag. 0.10E+00    8.6     0.00421844       -46.7473704340  1.39E-02
     8 Broy./Diag. 0.10E+00    8.8     0.01106039       -46.7576205608 -1.03E-02
     9 Broy./Diag. 0.10E+00    9.1     0.04296953       -46.8584192838 -1.01E-01
    10 Broy./Diag. 0.10E+00    9.4     0.01784206       -47.0169788281 -1.59E-01
    11 Broy./Diag. 0.10E+00    9.4     0.00525549       -47.0889044483 -7.19E-02
    12 Broy./Diag. 0.10E+00    9.4     0.01400646       -47.1087272681 -1.98E-02
    13 Broy./Diag. 0.10E+00    9.4     0.01967562       -47.1539141232 -4.52E-02
    14 Broy./Diag. 0.10E+00    9.4     0.00359029       -47.2075986961 -5.37E-02
    15 Broy./Diag. 0.10E+00    9.3     0.01391713       -47.1695747916  3.80E-02
    16 Broy./Diag. 0.10E+00    9.4     0.00890924       -47.2101175532 -4.05E-02
    17 Broy./Diag. 0.10E+00    9.4     0.00116522       -47.2453172772 -3.52E-02
    18 Broy./Diag. 0.10E+00    9.4     0.00462694       -47.2383134005  7.00E-03
    19 Broy./Diag. 0.10E+00    9.4     0.00430469       -47.2586212184 -2.03E-02
    20 Broy./Diag. 0.10E+00    9.4     0.00249307       -47.2782960634 -1.97E-02
    21 Broy./Diag. 0.10E+00    9.4     0.00096513       -47.2859001660 -7.60E-03
    22 Broy./Diag. 0.10E+00    9.4     0.00037201       -47.2889593159 -3.06E-03
    23 Broy./Diag. 0.10E+00    9.4     0.00047414       -47.3051329654 -1.62E-02
    24 Broy./Diag. 0.10E+00    9.4     0.01111358       -47.2950293055  1.01E-02
    25 Broy./Diag. 0.10E+00    9.4     0.00392767       -47.2194207056  7.56E-02
    26 Broy./Diag. 0.10E+00    9.4     0.00206105       -47.1935922145  2.58E-02
    27 Broy./Diag. 0.10E+00    9.4     0.00061945       -47.1815462905  1.20E-02
    28 Broy./Diag. 0.10E+00    9.4     0.00238898       -47.1740852204  7.46E-03
    29 Broy./Diag. 0.10E+00    9.3     0.00413147       -47.1739778996  1.07E-04
    30 Broy./Diag. 0.10E+00    9.4     0.00194649       -47.1871993975 -1.32E-02
    31 Broy./Diag. 0.10E+00    9.4     0.00011474       -47.1971984799 -1.00E-02
    32 Broy./Diag. 0.10E+00    9.4     0.00066145       -47.1983873652 -1.19E-03
    33 Broy./Diag. 0.10E+00    9.4     0.00040945       -47.1966359057  1.75E-03
    34 Broy./Diag. 0.10E+00    9.4     0.00021735       -47.1989179993 -2.28E-03
    35 Broy./Diag. 0.10E+00    9.4     0.00169240       -47.1998738914 -9.56E-04
    36 Broy./Diag. 0.10E+00    9.3     0.00824097       -47.2089231109 -9.05E-03
    37 Broy./Diag. 0.10E+00    9.4     0.00075737       -47.2467075434 -3.78E-02
    38 Broy./Diag. 0.10E+00    9.4     0.00007168       -47.2464780427  2.30E-04
    39 Broy./Diag. 0.10E+00    9.4     0.00015733       -47.2363819261  1.01E-02
    40 Broy./Diag. 0.10E+00    9.4     0.00006807       -47.2326765926  3.71E-03
    41 Broy./Diag. 0.10E+00    9.4     0.00456811       -47.2282567853  4.42E-03
    42 Broy./Diag. 0.10E+00    9.4     0.00366451       -47.2008161191  2.74E-02
    43 Broy./Diag. 0.10E+00    9.3     0.00190782       -47.2204983413 -1.97E-02
    44 Broy./Diag. 0.10E+00    9.4     0.00004822       -47.2162462248  4.25E-03
    45 Broy./Diag. 0.10E+00    9.4     0.00018920       -47.2120840411  4.16E-03
    46 Broy./Diag. 0.10E+00    9.4     0.00036073       -47.1998557323  1.22E-02
    47 Broy./Diag. 0.10E+00    9.4     0.00010906       -47.1916477157  8.21E-03
    48 Broy./Diag. 0.10E+00    9.4     0.00007533       -47.1874500756  4.20E-03
    49 Broy./Diag. 0.10E+00    9.4     0.00021335       -47.1833166287  4.13E-03
    50 Broy./Diag. 0.10E+00    9.3     0.00081159       -47.1797578860  3.56E-03
    51 Broy./Diag. 0.10E+00    9.3     0.00050181       -47.1858674981 -6.11E-03
    52 Broy./Diag. 0.10E+00    9.3     0.00070862       -47.1869655345 -1.10E-03
    53 Broy./Diag. 0.10E+00    9.3     0.00105161       -47.1924664546 -5.50E-03
    54 Broy./Diag. 0.10E+00    9.3     0.00022411       -47.1903065470  2.16E-03
    55 Broy./Diag. 0.10E+00    9.3     0.00020770       -47.1980195008 -7.71E-03
    56 Broy./Diag. 0.10E+00    9.3     0.00004150       -47.1982726955 -2.53E-04
    57 Broy./Diag. 0.10E+00    9.3     0.00033070       -47.1857635450  1.25E-02
    58 Broy./Diag. 0.10E+00    9.3     0.00023811       -47.1746358434  1.11E-02
    59 Broy./Diag. 0.10E+00    9.3     0.00014457       -47.1696377978  5.00E-03
    60 Broy./Diag. 0.10E+00    9.3     0.00007331       -47.1666534363  2.98E-03
    61 Broy./Diag. 0.10E+00    9.3     0.00006121       -47.1644104175  2.24E-03
    62 Broy./Diag. 0.10E+00    9.3     0.00009462       -47.1645928275 -1.82E-04
    63 Broy./Diag. 0.10E+00    9.3     0.00003937       -47.1649220483 -3.29E-04
    64 Broy./Diag. 0.10E+00    9.3     0.00001132       -47.1651990924 -2.77E-04
    65 Broy./Diag. 0.10E+00    9.3     0.00001973       -47.1654126380 -2.14E-04
    66 Broy./Diag. 0.10E+00    9.3     0.00006028       -47.1651986569  2.14E-04
    67 Broy./Diag. 0.10E+00    9.3     0.00014596       -47.1633297526  1.87E-03
    68 Broy./Diag. 0.10E+00    9.3     0.00004202       -47.1648394444 -1.51E-03
    69 Broy./Diag. 0.10E+00    9.3     0.00005620       -47.1653871862 -5.48E-04
    70 Broy./Diag. 0.10E+00    9.3     0.00011741       -47.1678531194 -2.47E-03
    71 Broy./Diag. 0.10E+00    9.3     0.00017339       -47.1667493624  1.10E-03
    72 Broy./Diag. 0.10E+00    9.3     0.00015939       -47.1665893831  1.60E-04
    73 Broy./Diag. 0.10E+00    9.3     0.00003074       -47.1661399011  4.49E-04
    74 Broy./Diag. 0.10E+00    9.3     0.00002186       -47.1654029043  7.37E-04
    75 Broy./Diag. 0.10E+00    9.3     0.00002022       -47.1650867349  3.16E-04
    76 Broy./Diag. 0.10E+00    9.4     0.00003761       -47.1643967706  6.90E-04
    77 Broy./Diag. 0.10E+00    9.4     0.00017707       -47.1645245162 -1.28E-04
    78 Broy./Diag. 0.10E+00    9.3     0.00011053       -47.1649524226 -4.28E-04
    79 Broy./Diag. 0.10E+00    9.3     0.00000635       -47.1650699932 -1.18E-04
    80 Broy./Diag. 0.10E+00    9.3     0.00000731       -47.1648878346  1.82E-04
    81 Broy./Diag. 0.10E+00    9.3     0.00004512       -47.1645637646  3.24E-04
    82 Broy./Diag. 0.10E+00    9.3     0.00000347       -47.1644047463  1.59E-04
    83 Broy./Diag. 0.10E+00    9.3     0.00000408       -47.1645168664 -1.12E-04
    84 Broy./Diag. 0.10E+00    9.4     0.00001175       -47.1645111186  5.75E-06
    85 Broy./Diag. 0.10E+00    9.3     0.00000304       -47.1645519134 -4.08E-05
    86 Broy./Diag. 0.10E+00    9.3     0.00005463       -47.1645204225  3.15E-05
    87 Broy./Diag. 0.10E+00    9.3     0.00002200       -47.1649426471 -4.22E-04
    88 Broy./Diag. 0.10E+00    9.3     0.00004000       -47.1650052820 -6.26E-05
    89 Broy./Diag. 0.10E+00    9.3     0.00008194       -47.1650666454 -6.14E-05
    90 Broy./Diag. 0.10E+00    9.4     0.00005905       -47.1653536763 -2.87E-04
    91 Broy./Diag. 0.10E+00    9.4     0.00001337       -47.1656120259 -2.58E-04
    92 Broy./Diag. 0.10E+00    9.3     0.00000182       -47.1655783024  3.37E-05
    93 Broy./Diag. 0.10E+00    9.4     0.00002532       -47.1655506409  2.77E-05
    94 Broy./Diag. 0.10E+00    9.4     0.00002255       -47.1656529820 -1.02E-04
    95 Broy./Diag. 0.10E+00    9.3     0.00003031       -47.1657353558 -8.24E-05
    96 Broy./Diag. 0.10E+00    9.3     0.00007338       -47.1659650995 -2.30E-04
    97 Broy./Diag. 0.10E+00    9.3     0.00000572       -47.1657339625  2.31E-04
    98 Broy./Diag. 0.10E+00    9.4     0.00002519       -47.1656184137  1.16E-04
    99 Broy./Diag. 0.10E+00    9.3     0.00001962       -47.1654008574  2.18E-04
   100 Broy./Diag. 0.10E+00    9.3     0.00000497       -47.1653697248  3.11E-05
   101 Broy./Diag. 0.10E+00    9.3     0.00005165       -47.1653123140  5.74E-05
   102 Broy./Diag. 0.10E+00    9.3     0.00023344       -47.1654664345 -1.54E-04
   103 Broy./Diag. 0.10E+00    9.3     0.00022188       -47.1663832604 -9.17E-04
   104 Broy./Diag. 0.10E+00    9.3     0.00003925       -47.1671911643 -8.08E-04
   105 Broy./Diag. 0.10E+00    9.3     0.00012315       -47.1675931261 -4.02E-04
   106 Broy./Diag. 0.10E+00    9.3     0.00012174       -47.1681382553 -5.45E-04
   107 Broy./Diag. 0.10E+00    9.3     0.00012646       -47.1684980298 -3.60E-04
   108 Broy./Diag. 0.10E+00    9.3     0.00002212       -47.1691812998 -6.83E-04
   109 Broy./Diag. 0.10E+00    9.3     0.00004542       -47.1691172322  6.41E-05
   110 Broy./Diag. 0.10E+00    9.3     0.00001115       -47.1689765259  1.41E-04
   111 Broy./Diag. 0.10E+00    9.3     0.00001692       -47.1692105033 -2.34E-04
   112 Broy./Diag. 0.10E+00    9.2     0.00002708       -47.1688165525  3.94E-04
   113 Broy./Diag. 0.10E+00    9.1     0.00003467       -47.1671312418  1.69E-03
   114 Broy./Diag. 0.10E+00    9.1     0.00001942       -47.1664788770  6.52E-04
   115 Broy./Diag. 0.10E+00    9.1     0.00002442       -47.1660302584  4.49E-04
   116 Broy./Diag. 0.10E+00    9.1     0.00001114       -47.1653903966  6.40E-04
   117 Broy./Diag. 0.10E+00    9.1     0.00001080       -47.1651912303  1.99E-04
   118 Broy./Diag. 0.10E+00    9.2     0.00000833       -47.1648866054  3.05E-04
   119 Broy./Diag. 0.10E+00    9.2     0.00000525       -47.1650115525 -1.25E-04
   120 Broy./Diag. 0.10E+00    9.1     0.00002304       -47.1650518763 -4.03E-05
   121 Broy./Diag. 0.10E+00    9.2     0.00003155       -47.1649620857  8.98E-05
   122 Broy./Diag. 0.10E+00    9.2     0.00001003       -47.1647943820  1.68E-04
   123 Broy./Diag. 0.10E+00    9.2     0.00001392       -47.1649365532 -1.42E-04
   124 Broy./Diag. 0.10E+00    9.2     0.00002213       -47.1650115599 -7.50E-05
   125 Broy./Diag. 0.10E+00    9.2     0.00001787       -47.1650424940 -3.09E-05
   126 Broy./Diag. 0.10E+00    9.2     0.00001083       -47.1648052350  2.37E-04
   127 Broy./Diag. 0.10E+00    9.1     0.00006011       -47.1647838793  2.14E-05
   128 Broy./Diag. 0.10E+00    9.2     0.00001252       -47.1649359517 -1.52E-04
   129 Broy./Diag. 0.10E+00    9.2     0.00000406       -47.1649421774 -6.23E-06
   130 Broy./Diag. 0.10E+00    9.2     0.00003401       -47.1649713046 -2.91E-05
   131 Broy./Diag. 0.10E+00    9.2     0.00001024       -47.1650888336 -1.18E-04
   132 Broy./Diag. 0.10E+00    9.2     0.00000271       -47.1650178576  7.10E-05
   133 Broy./Diag. 0.10E+00    9.2     0.00001101       -47.1649693150  4.85E-05
   134 Broy./Diag. 0.10E+00    9.1     0.00000446       -47.1650104032 -4.11E-05
   135 Broy./Diag. 0.10E+00    9.2     0.00000202       -47.1650076034  2.80E-06
   136 Broy./Diag. 0.10E+00    9.2     0.00000423       -47.1649883683  1.92E-05
   137 Broy./Diag. 0.10E+00    9.2     0.00002199       -47.1650343966 -4.60E-05
   138 Broy./Diag. 0.10E+00    9.2     0.00000225       -47.1651318717 -9.75E-05
   139 Broy./Diag. 0.10E+00    9.3     0.00000159       -47.1651041303  2.77E-05
   140 Broy./Diag. 0.10E+00    9.2     0.00000291       -47.1650629205  4.12E-05
   141 Broy./Diag. 0.10E+00    9.2     0.00000229       -47.1650475860  1.53E-05
   142 Broy./Diag. 0.10E+00    9.2     0.00000338       -47.1650352057  1.24E-05
   143 Broy./Diag. 0.10E+00    9.2     0.00000034       -47.1650316535  3.55E-06
   144 Broy./Diag. 0.10E+00    9.2     0.00000082       -47.1650314073  2.46E-07
   145 Broy./Diag. 0.10E+00    9.2     0.00000015       -47.1650350084 -3.60E-06

  *** SCF run converged in   145 steps ***


  Electronic density on regular grids:         -9.0000016788       -0.0000016788
  Core density on regular grids:                9.0000000000       -0.0000000000
  Total charge density on r-space grids:       -0.0000016788
  Total charge density g-space grids:          -0.0000016788

  Overlap energy of the core charge distribution:               0.00000000000000
  Self energy of the core charge distribution:                -96.60649019442629
  Core Hamiltonian energy:                                     29.76207179369851
  Hartree energy:                                              26.73453307836047
  Exchange-correlation energy:                                 -7.05514848129737
  Dispersion energy:                                           -0.00000120476189
  Electronic entropic energy:                                  -0.00000000000000
  Fermi energy:                                                -0.06771619267883

  Total energy:                                               -47.16503500842656

  outer SCF iter =    1 RMS gradient =   0.15E-06 energy =        -47.1650350084
  outer SCF loop converged in   1 iterations or  145 steps


  Integrated absolute spin density  :                               1.0000397827
  WARNING: S**2 computation does not yet treat fractional occupied orbitals

 *** WARNING in qs_loc_utils.F:1500 :: User requested the calculation of ***
 *** the localized wavefunction but the section LOCALIZE was not         ***
 *** specified. Localization will not be performed!                      ***


 -------------------------------------------------------------------------------
 -                                                                             -
 -  BSSE CALCULATION         FRAGMENT CONF: 11        FRAGMENT SUBCONF: 10     -
 -                           CHARGE =     0           MULTIPLICITY =     0     -
 -                                                                             -
 -                 ATOM INDEX                              ATOM NAME           -
 -                 ----------                              ---------           -
 -                      1                                   C                  -
 -                      2                                   C                  -
 -                      3                                   C                  -
 -                      4                                   C                  -
 -                      5                                   C                  -
 -                      6                                   C                  -
 -                      7                                   C                  -
 -                      8                                   C                  -
 -                      9                                   C                  -
 -                     10                                   C                  -
 -                     11                                   C                  -
 -                     12                                   C                  -
 -                     13                                   C                  -
 -                     14                                   C                  -
 -                     15                                   C                  -
 -                     16                                   C                  -
 -                     17                                   C                  -
 -                     18                                   C                  -
 -                     19                                   C                  -
 -                     20                                   C                  -
 -                     21                                   C                  -
 -                     22                                   C                  -
 -                     23                                   C                  -
 -                     24                                   C                  -
 -                     25                                   C                  -
 -                     26                                   C                  -
 -                     27                                   C                  -
 -                     28                                   C                  -
 -                     29                                   C                  -
 -                     30                                   C                  -
 -                     31                                   C                  -
 -                     32                                   C                  -
 -                     33                                   C                  -
 -                     34                                   C                  -
 -                     35                                   C                  -
 -                     36                                   C                  -
 -                     37                                   C                  -
 -                     38                                   C                  -
 -                     39                                   C                  -
 -                     40                                   C                  -
 -                     41                                   C                  -
 -                     42                                   C                  -
 -                     43                                   C                  -
 -                     44                                   C                  -
 -                     45                                   C                  -
 -                     46                                   C                  -
 -                     47                                   C                  -
 -                     48                                   C                  -
 -                     49                                   C                  -
 -                     50                                   C                  -
 -                     51                                   C                  -
 -                     52                                   C                  -
 -                     53                                   C                  -
 -                     54                                   C                  -
 -                     55                                   C                  -
 -                     56                                   C                  -
 -                     57                                   C                  -
 -                     58                                   C                  -
 -                     59                                   C                  -
 -                     60                                   C                  -
 -                     61                                   C                  -
 -                     62                                   C                  -
 -                     63                                   C                  -
 -                     64                                   C                  -
 -                     65                                   C                  -
 -                     66                                   C                  -
 -                     67                                   C                  -
 -                     68                                   C                  -
 -                     69                                   C                  -
 -                     70                                   C                  -
 -                     71                                   C                  -
 -                     72                                   C                  -
 -                     73                                   C                  -
 -                     74                                   C                  -
 -                     75                                   C                  -
 -                     76                                   C                  -
 -                     77                                   C                  -
 -                     78                                   C                  -
 -                     79                                   C                  -
 -                     80                                   C                  -
 -                     81                                   C                  -
 -                     82                                   C                  -
 -                     83                                   C                  -
 -                     84                                   C                  -
 -                     85                                   C                  -
 -                     86                                   C                  -
 -                     87                                   C                  -
 -                     88                                   C                  -
 -                     89                                   C                  -
 -                     90                                   C                  -
 -                     91                                   C                  -
 -                     92                                   C                  -
 -                     93                                   C                  -
 -                     94                                   C                  -
 -                     95                                   C                  -
 -                     96                                   C                  -
 -                     97                                   C                  -
 -                     98                                   C                  -
 -                     99                                   C                  -
 -                    100                                   C                  -
 -                    101                                   C                  -
 -                    102                                   C                  -
 -                    103                                   C                  -
 -                    104                                   C                  -
 -                    105                                   C                  -
 -                    106                                   C                  -
 -                    107                                   C                  -
 -                    108                                   C                  -
 -                    109                                   C                  -
 -                    110                                   C                  -
 -                    111                                   C                  -
 -                    112                                   C                  -
 -                    113                                   H                  -
 -                    114                                   H                  -
 -                    115                                   H                  -
 -                    116                                   H                  -
 -                    117                                   H                  -
 -                    118                                   H                  -
 -                    119                                   H                  -
 -                    120                                   H                  -
 -                    121                                   H                  -
 -                    122                                   H                  -
 -                    123                                   H                  -
 -                    124                                   H                  -
 -                    125                                   H                  -
 -                    126                                   H                  -
 -                    127                                   H                  -
 -                    128                                   H                  -
[...]
  Self energy of the core charge distribution:              -1612.69496133404027
  Core Hamiltonian energy:                                    505.10616050344782
  Hartree energy:                                             621.64693582676273
  Exchange-correlation energy:                               -208.34907257562111
  Dispersion energy:                                           -0.13551089991212
  Electronic entropic energy:                                  -0.00195011157981
  Fermi energy:                                                -0.10885848856515

  Total energy:                                              -694.42818221883181

  outer SCF iter =   26 RMS gradient =   0.12E+00 energy =       -694.4281822188
     1 Broy./Diag. 0.10E+00   26.6     0.38432112      -694.3424964630  8.57E-02
     2 Broy./Diag. 0.10E+00   15.1     0.38416179      -694.1361820217  2.06E-01
     3 Broy./Diag. 0.10E+00   15.1     0.06418173      -694.3531991679 -2.17E-01
     4 Broy./Diag. 0.10E+00   15.1     0.04374408      -694.4209635918 -6.78E-02
     5 Broy./Diag. 0.10E+00   15.1     0.00277187      -694.3877684758  3.32E-02
     6 Broy./Diag. 0.10E+00   15.1     0.01999248      -694.3846788847  3.09E-03
     7 Broy./Diag. 0.10E+00   15.1     0.00698104      -694.3651909370  1.95E-02
     8 Broy./Diag. 0.10E+00   15.1     0.04945990      -694.3534742009  1.17E-02
     9 Broy./Diag. 0.10E+00   15.1     0.04027538      -694.3323802077  2.11E-02
    10 Broy./Diag. 0.10E+00   15.1     0.02473583      -694.3323198932  6.03E-05
    11 Broy./Diag. 0.10E+00   15.1     0.05880254      -694.3142189666  1.81E-02
    12 Broy./Diag. 0.10E+00   15.1     0.07659226      -694.3639454726 -4.97E-02
    13 Broy./Diag. 0.10E+00   15.1     0.03834019      -694.3979451376 -3.40E-02
    14 Broy./Diag. 0.10E+00   15.0     0.03124238      -694.3786635496  1.93E-02
    15 Broy./Diag. 0.10E+00   15.1     0.04807376      -694.3724402411  6.22E-03
    16 Broy./Diag. 0.10E+00   15.1     0.00686023      -694.4147930229 -4.24E-02
    17 Broy./Diag. 0.10E+00   15.1     0.02599098      -694.4192284433 -4.44E-03
    18 Broy./Diag. 0.10E+00   15.1     0.05595015      -694.4280051024 -8.78E-03
    19 Broy./Diag. 0.10E+00   15.0     0.01680397      -694.4454809953 -1.75E-02
    20 Broy./Diag. 0.10E+00   15.1     0.04280194      -694.4326303151  1.29E-02
    21 Broy./Diag. 0.10E+00   15.1     0.02270183      -694.4223595221  1.03E-02
    22 Broy./Diag. 0.10E+00   15.1     0.07547332      -694.4077996935  1.46E-02
    23 Broy./Diag. 0.10E+00   15.1     0.05976268      -694.3565543904  5.12E-02
    24 Broy./Diag. 0.10E+00   15.1     0.01363068      -694.3875273752 -3.10E-02
    25 Broy./Diag. 0.10E+00   15.1     0.00899883      -694.3859893972  1.54E-03
    26 Broy./Diag. 0.10E+00   15.0     0.11988154      -694.3841681920  1.82E-03
    27 Broy./Diag. 0.10E+00   15.1     0.09520857      -694.4507555344 -6.66E-02
    28 Broy./Diag. 0.10E+00   15.0     0.01244978      -694.3982489294  5.25E-02
    29 Broy./Diag. 0.10E+00   15.1     0.00626648      -694.4022687376 -4.02E-03
    30 Broy./Diag. 0.10E+00   15.1     0.00757122      -694.4097221120 -7.45E-03
    31 Broy./Diag. 0.10E+00   15.1     0.04547601      -694.4091419541  5.80E-04
    32 Broy./Diag. 0.10E+00   15.1     0.00324051      -694.3770705554  3.21E-02
    33 Broy./Diag. 0.10E+00   15.1     0.02742166      -694.3797754285 -2.70E-03
    34 Broy./Diag. 0.10E+00   15.1     0.05508692      -694.3964593933 -1.67E-02
    35 Broy./Diag. 0.10E+00   15.1     0.06901064      -694.3658637800  3.06E-02
    36 Broy./Diag. 0.10E+00   15.1     0.05799330      -694.4191626020 -5.33E-02
    37 Broy./Diag. 0.10E+00   15.1     0.05467565      -694.4437616297 -2.46E-02
    38 Broy./Diag. 0.10E+00   15.1     0.02632662      -694.4291066162  1.47E-02
    39 Broy./Diag. 0.10E+00   15.1     0.02727374      -694.4430750418 -1.40E-02
    40 Broy./Diag. 0.10E+00   15.1     0.02525892      -694.4319088020  1.12E-02
    41 Broy./Diag. 0.10E+00   15.1     0.01198075      -694.4483284910 -1.64E-02
    42 Broy./Diag. 0.10E+00   15.0     0.02603595      -694.4396125203  8.72E-03
    43 Broy./Diag. 0.10E+00   15.0     0.00424055      -694.4209496409  1.87E-02
    44 Broy./Diag. 0.10E+00   15.1     0.08396815      -694.4165429497  4.41E-03
    45 Broy./Diag. 0.10E+00   15.1     0.05743634      -694.3460656928  7.05E-02
    46 Broy./Diag. 0.10E+00   15.1     0.04916140      -694.3846519813 -3.86E-02
    47 Broy./Diag. 0.10E+00   15.1     0.02920757      -694.3491039279  3.55E-02
    48 Broy./Diag. 0.10E+00   15.1     0.05439941      -694.3276886341  2.14E-02
    49 Broy./Diag. 0.10E+00   15.0     0.08696470      -694.3143071916  1.34E-02
    50 Broy./Diag. 0.10E+00   15.1     0.03127528      -694.3583649787 -4.41E-02
    51 Broy./Diag. 0.10E+00   15.1     0.07685778      -694.3455925183  1.28E-02
    52 Broy./Diag. 0.10E+00   15.1     0.06620867      -694.3985246572 -5.29E-02
    53 Broy./Diag. 0.10E+00   15.1     0.03891323      -694.4304025040 -3.19E-02
    54 Broy./Diag. 0.10E+00   15.1     0.08539575      -694.4019387951  2.85E-02
    55 Broy./Diag. 0.10E+00   15.1     0.07062638      -694.4316846095 -2.97E-02
    56 Broy./Diag. 0.10E+00   15.0     0.06527425      -694.4116273379  2.01E-02
    57 Broy./Diag. 0.10E+00   15.1     0.05078119      -694.4336547940 -2.20E-02
    58 Broy./Diag. 0.10E+00   15.1     0.06182813      -694.3167031005  1.17E-01
    59 Broy./Diag. 0.10E+00   15.1     0.01040034      -694.4219678021 -1.05E-01
    60 Broy./Diag. 0.10E+00   15.1     0.06317190      -694.4261233953 -4.16E-03
    61 Broy./Diag. 0.10E+00   15.1     0.07788496      -694.3543957070  7.17E-02
    62 Broy./Diag. 0.10E+00   15.1     0.01438662      -694.4342905301 -7.99E-02
    63 Broy./Diag. 0.10E+00   15.1     0.03193609      -694.4467486090 -1.25E-02
    64 Broy./Diag. 0.10E+00   15.1     0.02578290      -694.4616215400 -1.49E-02
    65 Broy./Diag. 0.10E+00   15.1     0.03088450      -694.4647408681 -3.12E-03
    66 Broy./Diag. 0.10E+00   15.1     0.04600391      -694.4590676647  5.67E-03
    67 Broy./Diag. 0.10E+00   15.1     0.01560794      -694.4587075156  3.60E-04
    68 Broy./Diag. 0.10E+00   15.0     0.01477385      -694.4581236351  5.84E-04
    69 Broy./Diag. 0.10E+00   15.1     0.03384982      -694.4148740061  4.32E-02
    70 Broy./Diag. 0.10E+00   15.1     0.07506013      -694.4445477992 -2.97E-02
    71 Broy./Diag. 0.10E+00   15.1     0.10375911      -694.4032233121  4.13E-02
    72 Broy./Diag. 0.10E+00   15.1     0.02463425      -694.4714527374 -6.82E-02
    73 Broy./Diag. 0.10E+00   15.1     0.10237458      -694.4115046267  5.99E-02
    74 Broy./Diag. 0.10E+00   15.1     0.01919651      -694.2931386581  1.18E-01
    75 Broy./Diag. 0.10E+00   15.1     0.03070419      -694.2906490542  2.49E-03
    76 Broy./Diag. 0.10E+00   15.1     0.01610018      -694.3338651531 -4.32E-02
    77 Broy./Diag. 0.10E+00   15.1     0.03470720      -694.3557509206 -2.19E-02
    78 Broy./Diag. 0.10E+00   15.1     0.04587896      -694.4046872942 -4.89E-02
    79 Broy./Diag. 0.10E+00   15.1     0.07215349      -694.4381515027 -3.35E-02
    80 Broy./Diag. 0.10E+00   15.1     0.18925544      -694.3683940240  6.98E-02
    81 Broy./Diag. 0.10E+00   15.1     0.16929970      -694.2046871052  1.64E-01
    82 Broy./Diag. 0.10E+00   15.1     0.05175365      -694.3856501919 -1.81E-01
    83 Broy./Diag. 0.10E+00   15.1     0.09381211      -694.3544699010  3.12E-02
    84 Broy./Diag. 0.10E+00   15.1     0.02861945      -694.4375374853 -8.31E-02
    85 Broy./Diag. 0.10E+00   15.1     0.03953605      -694.4016910960  3.58E-02
    86 Broy./Diag. 0.10E+00   15.1     0.03245402      -694.3699120431  3.18E-02
    87 Broy./Diag. 0.10E+00   15.1     0.03645800      -694.3779565547 -8.04E-03
    88 Broy./Diag. 0.10E+00   15.1     0.02445833      -694.3990027063 -2.10E-02
    89 Broy./Diag. 0.10E+00   15.1     0.03910069      -694.3768075658  2.22E-02
    90 Broy./Diag. 0.10E+00   15.1     0.01788607      -694.3430528133  3.38E-02
    91 Broy./Diag. 0.10E+00   15.1     0.00393729      -694.3423717592  6.81E-04
    92 Broy./Diag. 0.10E+00   15.1     0.01971305      -694.3484504555 -6.08E-03
    93 Broy./Diag. 0.10E+00   15.1     0.09027945      -694.3331171737  1.53E-02
    94 Broy./Diag. 0.10E+00   15.1     0.09396443      -694.3856859228 -5.26E-02
    95 Broy./Diag. 0.10E+00   15.1     0.09668674      -694.3136326838  7.21E-02
    96 Broy./Diag. 0.10E+00   15.1     0.09172906      -694.3343900177 -2.08E-02
    97 Broy./Diag. 0.10E+00   15.1     0.05228784      -694.2938575041  4.05E-02
    98 Broy./Diag. 0.10E+00   15.0     0.05248020      -694.3547766064 -6.09E-02
    99 Broy./Diag. 0.10E+00   15.0     0.00977632      -694.3857231936 -3.09E-02
   100 Broy./Diag. 0.10E+00   15.1     0.07758003      -694.3980449225 -1.23E-02
   101 Broy./Diag. 0.10E+00   15.1     0.01692468      -694.4211058708 -2.31E-02
   102 Broy./Diag. 0.10E+00   15.1     0.01702877      -694.4026366150  1.85E-02
   103 Broy./Diag. 0.10E+00   15.1     0.29683442      -694.3981552981  4.48E-03
   104 Broy./Diag. 0.10E+00   15.1     0.09523964      -694.0666123664  3.32E-01
   105 Broy./Diag. 0.10E+00   15.1     0.03122337      -694.2122110380 -1.46E-01
   106 Broy./Diag. 0.10E+00   15.1     0.02837287      -694.2138287619 -1.62E-03
   107 Broy./Diag. 0.10E+00   15.1     0.10829357      -694.1792419815  3.46E-02
   108 Broy./Diag. 0.10E+00   15.1     0.08770558      -694.2736176934 -9.44E-02
   109 Broy./Diag. 0.10E+00   15.1     0.13080791      -694.1979804632  7.56E-02
   110 Broy./Diag. 0.10E+00   15.1     0.01678178      -694.3434110389 -1.45E-01
   111 Broy./Diag. 0.10E+00   15.1     0.03586832      -694.3217696711  2.16E-02
   112 Broy./Diag. 0.10E+00   15.1     0.02104469      -694.2996036422  2.22E-02
   113 Broy./Diag. 0.10E+00   15.0     0.01813513      -694.2822369051  1.74E-02
   114 Broy./Diag. 0.10E+00   15.1     0.02612744      -694.3076449008 -2.54E-02
   115 Broy./Diag. 0.10E+00   15.1     0.04241402      -694.3372280052 -2.96E-02
   116 Broy./Diag. 0.10E+00   15.1     0.01183021      -694.3626983883 -2.55E-02
   117 Broy./Diag. 0.10E+00   15.1     0.01739041      -694.3474542687  1.52E-02
   118 Broy./Diag. 0.10E+00   15.1     0.02943981      -694.3530606385 -5.61E-03
   119 Broy./Diag. 0.10E+00   15.1     0.04811159      -694.3404883811  1.26E-02
   120 Broy./Diag. 0.10E+00   15.1     0.11661030      -694.3036088904  3.69E-02
   121 Broy./Diag. 0.10E+00   15.1     0.10662170      -694.4178914267 -1.14E-01
   122 Broy./Diag. 0.10E+00   15.1     0.12225842      -694.2482622591  1.70E-01
   123 Broy./Diag. 0.10E+00   15.1     0.02674153      -694.4333725391 -1.85E-01
   124 Broy./Diag. 0.10E+00   15.1     0.03220881      -694.4033114538  3.01E-02
   125 Broy./Diag. 0.10E+00   15.1     0.04301325      -694.4069928057 -3.68E-03
   126 Broy./Diag. 0.10E+00   15.1     0.07096452      -694.3829442872  2.40E-02
   127 Broy./Diag. 0.10E+00   15.1     0.03619620      -694.4413192952 -5.84E-02
   128 Broy./Diag. 0.10E+00   15.1     0.00843203      -694.4104330416  3.09E-02
   129 Broy./Diag. 0.10E+00   15.1     0.02333127      -694.4157413235 -5.31E-03
   130 Broy./Diag. 0.10E+00   15.1     0.04839067      -694.4402409713 -2.45E-02
   131 Broy./Diag. 0.10E+00   15.1     0.02910283      -694.4672557317 -2.70E-02
   132 Broy./Diag. 0.10E+00   15.1     0.13758478      -694.4053001643  6.20E-02
   133 Broy./Diag. 0.10E+00   15.1     0.03851211      -694.3086430835  9.67E-02
   134 Broy./Diag. 0.10E+00   15.0     0.01423460      -694.2781897913  3.05E-02
   135 Broy./Diag. 0.10E+00   15.1     0.05665909      -694.2919660505 -1.38E-02
   136 Broy./Diag. 0.10E+00   15.1     0.03591475      -694.3519879095 -6.00E-02
   137 Broy./Diag. 0.10E+00   15.1     0.00796208      -694.3651429478 -1.32E-02
   138 Broy./Diag. 0.10E+00   15.1     0.03983400      -694.3436003846  2.15E-02
   139 Broy./Diag. 0.10E+00   15.1     0.17500103      -694.3711244109 -2.75E-02
   140 Broy./Diag. 0.10E+00   15.0     0.01494297      -694.2886669632  8.25E-02
   141 Broy./Diag. 0.10E+00   15.0     0.03445361      -694.2747338206  1.39E-02
   142 Broy./Diag. 0.10E+00   15.1     0.11836925      -694.2396297407  3.51E-02
   143 Broy./Diag. 0.10E+00   15.1     0.02259388      -694.3224733234 -8.28E-02
   144 Broy./Diag. 0.10E+00   15.1     0.03671897      -694.3279723646 -5.50E-03
   145 Broy./Diag. 0.10E+00   15.1     0.03755382      -694.2769588749  5.10E-02
   146 Broy./Diag. 0.10E+00   15.1     0.10182209      -694.3484221314 -7.15E-02
   147 Broy./Diag. 0.10E+00   15.1     0.10302549      -694.1273617643  2.21E-01
   148 Broy./Diag. 0.10E+00   15.0     0.15048380      -694.2920272054 -1.65E-01
   149 Broy./Diag. 0.10E+00   15.1     0.08721662      -694.2266716660  6.54E-02
   150 Broy./Diag. 0.10E+00   15.1     0.03097055      -694.3109929287 -8.43E-02
   151 Broy./Diag. 0.10E+00   15.1     0.04414769      -694.3348540055 -2.39E-02
   152 Broy./Diag. 0.10E+00   15.1     0.05385849      -694.3023769565  3.25E-02
   153 Broy./Diag. 0.10E+00   15.1     0.01270307      -694.2872172864  1.52E-02
   154 Broy./Diag. 0.10E+00   15.1     0.06105487      -694.3080584784 -2.08E-02
   155 Broy./Diag. 0.10E+00   15.0     0.06048577      -694.3544923990 -4.64E-02
   156 Broy./Diag. 0.10E+00   15.1     0.03520052      -694.4147845095 -6.03E-02
   157 Broy./Diag. 0.10E+00   15.1     0.07019970      -694.3488649042  6.59E-02
   158 Broy./Diag. 0.10E+00   15.1     0.02385925      -694.3945440638 -4.57E-02
   159 Broy./Diag. 0.10E+00   15.1     0.01761246      -694.3609816424  3.36E-02
   160 Broy./Diag. 0.10E+00   15.1     0.07587810      -694.3229047429  3.81E-02
   161 Broy./Diag. 0.10E+00   15.1     0.06015482      -694.3062336768  1.67E-02
   162 Broy./Diag. 0.10E+00   15.1     0.09769265      -694.2754442285  3.08E-02
   163 Broy./Diag. 0.10E+00   15.1     0.13954992      -694.2075743846  6.79E-02
   164 Broy./Diag. 0.10E+00   15.1     0.08885007      -694.3240453986 -1.16E-01
   165 Broy./Diag. 0.10E+00   15.1     0.03377746      -694.4029425178 -7.89E-02
   166 Broy./Diag. 0.10E+00   15.1     0.01276328      -694.3890661637  1.39E-02
   167 Broy./Diag. 0.10E+00   15.1     0.02319350      -694.3897285939 -6.62E-04
   168 Broy./Diag. 0.10E+00   15.1     0.03563949      -694.3860555052  3.67E-03
   169 Broy./Diag. 0.10E+00   15.0     0.02672004      -694.3502848954  3.58E-02
   170 Broy./Diag. 0.10E+00   15.1     0.05339172      -694.3647649801 -1.45E-02
   171 Broy./Diag. 0.10E+00   15.1     0.01946509      -694.3143850060  5.04E-02
   172 Broy./Diag. 0.10E+00   15.1     0.00970119      -694.3301500765 -1.58E-02
   173 Broy./Diag. 0.10E+00   15.1     0.03380025      -694.3309780470 -8.28E-04
   174 Broy./Diag. 0.10E+00   15.1     0.05827846      -694.3589046372 -2.79E-02
   175 Broy./Diag. 0.10E+00   15.0     0.11158832      -694.3254431232  3.35E-02
   176 Broy./Diag. 0.10E+00   15.1     0.04845716      -694.3204485379  4.99E-03
   177 Broy./Diag. 0.10E+00   15.1     0.01347121      -694.3322162284 -1.18E-02
   178 Broy./Diag. 0.10E+00   15.1     0.03196787      -694.3134031963  1.88E-02
   179 Broy./Diag. 0.10E+00   15.1     0.00364461      -694.3539718891 -4.06E-02
   180 Broy./Diag. 0.10E+00   15.0     0.01694218      -694.3546879631 -7.16E-04
   181 Broy./Diag. 0.10E+00   15.1     0.01538191      -694.3501529340  4.54E-03
   182 Broy./Diag. 0.10E+00   15.1     0.02146104      -694.3756174795 -2.55E-02
   183 Broy./Diag. 0.10E+00   15.0     0.01236605      -694.3471549167  2.85E-02
   184 Broy./Diag. 0.10E+00   15.1     0.03959876      -694.3508634547 -3.71E-03
   185 Broy./Diag. 0.10E+00   15.1     0.02114271      -694.3258384714  2.50E-02
   186 Broy./Diag. 0.10E+00   15.1     0.03890650      -694.3481809633 -2.23E-02
   187 Broy./Diag. 0.10E+00   15.1     0.10657618      -694.3421162270  6.06E-03
   188 Broy./Diag. 0.10E+00   15.1     0.08414322      -694.2926374292  4.95E-02
   189 Broy./Diag. 0.10E+00   15.0     0.02483728      -694.3516927111 -5.91E-02
   190 Broy./Diag. 0.10E+00   15.1     0.01734075      -694.3389273439  1.28E-02
   191 Broy./Diag. 0.10E+00   15.1     0.03576798      -694.3469627272 -8.04E-03
   192 Broy./Diag. 0.10E+00   15.1     0.07856981      -694.3537593459 -6.80E-03
   193 Broy./Diag. 0.10E+00   15.1     0.07432092      -694.3640462524 -1.03E-02
   194 Broy./Diag. 0.10E+00   15.1     0.03840399      -694.3263219827  3.77E-02
   195 Broy./Diag. 0.10E+00   15.1     0.03444163      -694.3465771886 -2.03E-02
   196 Broy./Diag. 0.10E+00   15.0     0.00669113      -694.3578827512 -1.13E-02
   197 Broy./Diag. 0.10E+00   15.0     0.09153647      -694.3664200574 -8.54E-03
   198 Broy./Diag. 0.10E+00   15.1     0.11420164      -694.3513179398  1.51E-02
   199 Broy./Diag. 0.10E+00   15.1     0.06927799      -694.2580911461  9.32E-02
   200 Broy./Diag. 0.10E+00   15.1     0.02823854      -694.3191190695 -6.10E-02
   201 Broy./Diag. 0.10E+00   15.0     0.04046151      -694.3468969176 -2.78E-02
   202 Broy./Diag. 0.10E+00   15.1     0.09654170      -694.3517572606 -4.86E-03
   203 Broy./Diag. 0.10E+00   15.1     0.06877251      -694.4123669628 -6.06E-02
   204 Broy./Diag. 0.10E+00   15.1     0.03095674      -694.3739563064  3.84E-02
   205 Broy./Diag. 0.10E+00   15.1     0.25399140      -694.3896234130 -1.57E-02
   206 Broy./Diag. 0.10E+00   15.1     0.04715505      -694.2080341756  1.82E-01
   207 Broy./Diag. 0.10E+00   15.1     0.02530172      -694.2430822600 -3.50E-02
   208 Broy./Diag. 0.10E+00   15.0     0.12558959      -694.3068780717 -6.38E-02
   209 Broy./Diag. 0.10E+00   15.1     0.11069626      -694.2560768763  5.08E-02
   210 Broy./Diag. 0.10E+00   15.1     0.12958228      -694.3896338309 -1.34E-01
   211 Broy./Diag. 0.10E+00   15.1     0.07146225      -694.3651203288  2.45E-02
   212 Broy./Diag. 0.10E+00   15.1     0.06858895      -694.3706839697 -5.56E-03
   213 Broy./Diag. 0.10E+00   15.1     0.06656245      -694.2698137050  1.01E-01
   214 Broy./Diag. 0.10E+00   15.1     0.01196810      -694.3687026874 -9.89E-02
   215 Broy./Diag. 0.10E+00   15.1     0.03717026      -694.2999552610  6.87E-02
   216 Broy./Diag. 0.10E+00   15.1     0.00921287      -694.3454670109 -4.55E-02
   217 Broy./Diag. 0.10E+00   15.1     0.05017732      -694.3384944329  6.97E-03
   218 Broy./Diag. 0.10E+00   15.1     0.01076932      -694.3526333459 -1.41E-02
   219 Broy./Diag. 0.10E+00   15.1     0.16964922      -694.3415970895  1.10E-02
   220 Broy./Diag. 0.10E+00   15.1     0.14646784      -694.2895513988  5.20E-02
   221 Broy./Diag. 0.10E+00   15.1     0.01106906      -694.2930059598 -3.45E-03
   222 Broy./Diag. 0.10E+00   15.1     0.07914475      -694.2920156346  9.90E-04
   223 Broy./Diag. 0.10E+00   15.1     0.04415037      -694.3636388119 -7.16E-02
   224 Broy./Diag. 0.10E+00   15.1     0.04354217      -694.3562799878  7.36E-03
   225 Broy./Diag. 0.10E+00   15.1     0.07338997      -694.4196806475 -6.34E-02
   226 Broy./Diag. 0.10E+00   15.1     0.09824874      -694.3544742982  6.52E-02
   227 Broy./Diag. 0.10E+00   15.1     0.05710811      -694.3841399831 -2.97E-02
   228 Broy./Diag. 0.10E+00   15.1     0.03370852      -694.3741079689  1.00E-02
   229 Broy./Diag. 0.10E+00   15.1     0.10025561      -694.3817642226 -7.66E-03
   230 Broy./Diag. 0.10E+00   15.1     0.09849421      -694.3955093931 -1.37E-02
   231 Broy./Diag. 0.10E+00   15.1     0.12552039      -694.4154415673 -1.99E-02
   232 Broy./Diag. 0.10E+00   15.1     0.10585661      -694.3687922430  4.66E-02
   233 Broy./Diag. 0.10E+00   15.1     0.03145189      -694.3235124775  4.53E-02
   234 Broy./Diag. 0.10E+00   15.1     0.06069492      -694.3141161890  9.40E-03
   235 Broy./Diag. 0.10E+00   15.1     0.05218262      -694.2562525053  5.79E-02
   236 Broy./Diag. 0.10E+00   15.1     0.04403095      -694.3233493470 -6.71E-02
   237 Broy./Diag. 0.10E+00   15.1     0.02093608      -694.3197657025  3.58E-03
