 DBCSR| Multiplication driver                                               XSMM
 DBCSR| Multrec recursion limit                                              512
 DBCSR| Multiplication stack size                                           1000
 DBCSR| Maximum elements for images                                    UNLIMITED
 DBCSR| Multiplicative factor virtual images                                   1
 DBCSR| Multiplication size stacks                                             3
 DBCSR| Number of 3D layers                                               SINGLE
 DBCSR| Use MPI memory allocation                                              T
 DBCSR| Use RMA algorithm                                                      F
 DBCSR| Use Communication thread                                               T
 DBCSR| Communication thread load                                             87


  **** **** ******  **  PROGRAM STARTED AT               2024-07-25 11:49:44.339
 ***** ** ***  *** **   PROGRAM STARTED ON                            sebnode103
 **    ****   ******    PROGRAM STARTED BY                                luehrs
 ***** **    ** ** **   PROGRAM PROCESS ID                                364215
  **** **  *******  **  PROGRAM STARTED IN /home/luehrs/PhD/Sodium_batteries/Sod
                                           ium-graphene-edge/Zig_zag_2/No_hydrog
                                           en

 CP2K| version string:                    CP2K version 7.0 (Development Version)
 CP2K| source code revision number:                                             
 CP2K| cp2kflags: libint fftw3 libxc parallel mpi3 scalapack xsmm libderiv_max_a
 CP2K|            m1=8 libint_max_am=9 max_contr=4
 CP2K| is freely available from                            https://www.cp2k.org/
 CP2K| Program compiled at                         Sun Jun 24 14:37:16 CEST 2018
 CP2K| Program compiled on                                            sebstorage
 CP2K| Program compiled for                                Linux-x86-64-gfortran
 CP2K| Data directory path    /home/brehm/Software_Batchnode/2018/Source/cp2k_18
 CP2K| Input file name                         graphene_zig_zag_BSSE-1_2.restart

 GLOBAL| Force Environment number                                              1
 GLOBAL| Basis set file name                                      ./BASIS_MOLOPT
 GLOBAL| Potential file name                                    ./GTH_POTENTIALS
 GLOBAL| MM Potential file name                                     MM_POTENTIAL
 GLOBAL| Coordinate file name           graphene_no_hydrogen_zig-zag_relaxed.xyz
 GLOBAL| Method name                                                        CP2K
 GLOBAL| Project name                                      graphene_zig_zag_BSSE
 GLOBAL| Preferred FFT library                                             FFTW3
 GLOBAL| Preferred diagonalization lib.                                       SL
 GLOBAL| Run type                                                           BSSE
 GLOBAL| All-to-all communication in single precision                          F
 GLOBAL| FFTs using library dependent lengths                                  F
 GLOBAL| Global print level                                                  LOW
 GLOBAL| Total number of message passing processes                            16
 GLOBAL| Number of threads for this process                                    1
 GLOBAL| This output is from process                                           0
 GLOBAL| CPU model name :  Intel(R) Xeon(R) CPU E5-2620 v4 @ 2.10GHz

 MEMORY| system memory details [Kb]
 MEMORY|                        rank 0           min           max       average
 MEMORY| MemTotal             65835508      65835508      65835508      65835508
 MEMORY| MemFree              62699500      62699500      62699500      62699500
 MEMORY| Buffers                163632        163632        163632        163632
 MEMORY| Cached                 982672        982672        982672        982672
 MEMORY| Slab                   435288        435288        435288        435288
 MEMORY| SReclaimable           286412        286412        286412        286412
 MEMORY| MemLikelyFree        64132216      64132216      64132216      64132216


 GENERATE|  Preliminary Number of Bonds generated:                             0
 GENERATE|  Achieved consistency in connectivity generation.

 *******************************************************************************
 *******************************************************************************
 **                                                                           **
 **     #####                         ##              ##                      **
 **    ##   ##            ##          ##              ##                      **
 **   ##     ##                       ##            ######                    **
 **   ##     ##  ##   ##  ##   #####  ##  ##   ####   ##    #####    #####    **
 **   ##     ##  ##   ##  ##  ##      ## ##   ##      ##   ##   ##  ##   ##   **
 **   ##  ## ##  ##   ##  ##  ##      ####     ###    ##   ######   ######    **
 **    ##  ###   ##   ##  ##  ##      ## ##      ##   ##   ##       ##        **
 **     #######   #####   ##   #####  ##  ##  ####    ##    #####   ##        **
 **           ##                                                    ##        **
 **                                                                           **
 **                                                ... make the atoms dance   **
 **                                                                           **
 **            Copyright (C) by CP2K developers group (2000 - 2018)           **
 **                                                                           **
 *******************************************************************************


 TOTAL NUMBERS AND MAXIMUM NUMBERS

  Total number of            - Atomic kinds:                                   2
                             - Atoms:                                        113
                             - Shell sets:                                   113
                             - Shells:                                       565
                             - Primitive Cartesian functions:                567
                             - Cartesian basis functions:                   1577
                             - Spherical basis functions:                   1465

  Maximum angular momentum of- Orbital basis functions:                        2
                             - Local part of the GTH pseudopotential:          2
                             - Non-local part of the GTH pseudopotential:      1


 SCF PARAMETERS         Density guess:                                    ATOMIC
                        --------------------------------------------------------
                        max_scf:                                             400
                        max_scf_history:                                       0
                        max_diis:                                              4
                        --------------------------------------------------------
                        eps_scf:                                        3.00E-07
                        eps_scf_history:                                0.00E+00
                        eps_diis:                                       1.00E-01
                        eps_eigval:                                     1.00E-05
                        --------------------------------------------------------
                        level_shift [a.u.]:                                 0.00
                        added MOs                                       100  100
                        --------------------------------------------------------
                        Mixing method:                            BROYDEN_MIXING
                                                charge density mixing in g-space
                        --------------------------------------------------------
                        Smear method:                                FERMI_DIRAC
                        Electronic temperature [K]:                        300.0
                        Electronic temperature [a.u.]:                  9.50E-04
                        Accuracy threshold:                             1.00E-10
                        --------------------------------------------------------
                        Outer loop SCF in use 
                        No variables optimised in outer loop
                        eps_scf                                         1.00E-06
                        max_scf                                              100
                        DIIS optimization
                        DIIS buffer length                                     3
                        step_size                                       5.00E-01

 -------------------------------------------------------------------------------
 -                                                                             -
 -  BSSE CALCULATION         FRAGMENT CONF: 11        FRAGMENT SUBCONF: 10     -
 -                           CHARGE =     0           MULTIPLICITY =     0     -
 -                                                                             -
 -                 ATOM INDEX                              ATOM NAME           -
 -                 ----------                              ---------           -
 -                      1                                   C                  -
 -                      2                                   C                  -
 -                      3                                   C                  -
 -                      4                                   C                  -
 -                      5                                   C                  -
 -                      6                                   C                  -
 -                      7                                   C                  -
 -                      8                                   C                  -
 -                      9                                   C                  -
 -                     10                                   C                  -
 -                     11                                   C                  -
 -                     12                                   C                  -
 -                     13                                   C                  -
 -                     14                                   C                  -
 -                     15                                   C                  -
 -                     16                                   C                  -
 -                     17                                   C                  -
 -                     18                                   C                  -
 -                     19                                   C                  -
 -                     20                                   C                  -
 -                     21                                   C                  -
 -                     22                                   C                  -
 -                     23                                   C                  -
 -                     24                                   C                  -
 -                     25                                   C                  -
 -                     26                                   C                  -
 -                     27                                   C                  -
 -                     28                                   C                  -
 -                     29                                   C                  -
 -                     30                                   C                  -
 -                     31                                   C                  -
 -                     32                                   C                  -
 -                     33                                   C                  -
 -                     34                                   C                  -
 -                     35                                   C                  -
 -                     36                                   C                  -
 -                     37                                   C                  -
 -                     38                                   C                  -
 -                     39                                   C                  -
 -                     40                                   C                  -
 -                     41                                   C                  -
 -                     42                                   C                  -
 -                     43                                   C                  -
 -                     44                                   C                  -
 -                     45                                   C                  -
 -                     46                                   C                  -
 -                     47                                   C                  -
 -                     48                                   C                  -
 -                     49                                   C                  -
 -                     50                                   C                  -
 -                     51                                   C                  -
 -                     52                                   C                  -
 -                     53                                   C                  -
 -                     54                                   C                  -
 -                     55                                   C                  -
 -                     56                                   C                  -
 -                     57                                   C                  -
 -                     58                                   C                  -
 -                     59                                   C                  -
 -                     60                                   C                  -
 -                     61                                   C                  -
 -                     62                                   C                  -
 -                     63                                   C                  -
 -                     64                                   C                  -
 -                     65                                   C                  -
 -                     66                                   C                  -
 -                     67                                   C                  -
 -                     68                                   C                  -
 -                     69                                   C                  -
 -                     70                                   C                  -
 -                     71                                   C                  -
 -                     72                                   C                  -
 -                     73                                   C                  -
 -                     74                                   C                  -
 -                     75                                   C                  -
 -                     76                                   C                  -
 -                     77                                   C                  -
 -                     78                                   C                  -
 -                     79                                   C                  -
 -                     80                                   C                  -
 -                     81                                   C                  -
 -                     82                                   C                  -
 -                     83                                   C                  -
 -                     84                                   C                  -
 -                     85                                   C                  -
 -                     86                                   C                  -
 -                     87                                   C                  -
 -                     88                                   C                  -
 -                     89                                   C                  -
 -                     90                                   C                  -
 -                     91                                   C                  -
 -                     92                                   C                  -
 -                     93                                   C                  -
 -                     94                                   C                  -
 -                     95                                   C                  -
 -                     96                                   C                  -
 -                     97                                   C                  -
 -                     98                                   C                  -
 -                     99                                   C                  -
 -                    100                                   C                  -
 -                    101                                   C                  -
 -                    102                                   C                  -
 -                    103                                   C                  -
 -                    104                                   C                  -
 -                    105                                   C                  -
 -                    106                                   C                  -
 -                    107                                   C                  -
 -                    108                                   C                  -
 -                    109                                   C                  -
 -                    110                                   C                  -
 -                    111                                   C                  -
 -                    112                                   C                  -
 -                    113                                   Na_ghost           -
 -------------------------------------------------------------------------------

 *******************************************************************************
 *******************************************************************************
 **                                                                           **
 **     #####                         ##              ##                      **
 **    ##   ##            ##          ##              ##                      **
 **   ##     ##                       ##            ######                    **
 **   ##     ##  ##   ##  ##   #####  ##  ##   ####   ##    #####    #####    **
 **   ##     ##  ##   ##  ##  ##      ## ##   ##      ##   ##   ##  ##   ##   **
 **   ##  ## ##  ##   ##  ##  ##      ####     ###    ##   ######   ######    **
 **    ##  ###   ##   ##  ##  ##      ## ##      ##   ##   ##       ##        **
 **     #######   #####   ##   #####  ##  ##  ####    ##    #####   ##        **
 **           ##                                                    ##        **
 **                                                                           **
 **                                                ... make the atoms dance   **
 **                                                                           **
 **            Copyright (C) by CP2K developers group (2000 - 2018)           **
 **                                                                           **
 *******************************************************************************


 TOTAL NUMBERS AND MAXIMUM NUMBERS

  Total number of            - Atomic kinds:                                   2
                             - Atoms:                                        113
                             - Shell sets:                                   113
                             - Shells:                                       565
                             - Primitive Cartesian functions:                567
                             - Cartesian basis functions:                   1577
                             - Spherical basis functions:                   1465

  Maximum angular momentum of- Orbital basis functions:                        2
                             - Local part of the GTH pseudopotential:          2
                             - Non-local part of the GTH pseudopotential:      0


 SCF PARAMETERS         Density guess:                                    ATOMIC
                        --------------------------------------------------------
                        max_scf:                                             400
                        max_scf_history:                                       0
                        max_diis:                                              4
                        --------------------------------------------------------
                        eps_scf:                                        3.00E-07
                        eps_scf_history:                                0.00E+00
                        eps_diis:                                       1.00E-01
                        eps_eigval:                                     1.00E-05
                        --------------------------------------------------------
                        level_shift [a.u.]:                                 0.00
                        added MOs                                       100  100
                        --------------------------------------------------------
                        Mixing method:                            BROYDEN_MIXING
                                                charge density mixing in g-space
                        --------------------------------------------------------
                        Smear method:                                FERMI_DIRAC
                        Electronic temperature [K]:                        300.0
                        Electronic temperature [a.u.]:                  9.50E-04
                        Accuracy threshold:                             1.00E-10
                        --------------------------------------------------------
                        Outer loop SCF in use 
                        No variables optimised in outer loop
                        eps_scf                                         1.00E-06
                        max_scf                                              100
                        DIIS optimization
                        DIIS buffer length                                     3
                        step_size                                       5.00E-01

 Spin 1

 Number of electrons:                                                        224
 Number of occupied orbitals:                                                224
 Number of molecular orbitals:                                               324

 Spin 2

 Number of electrons:                                                        224
 Number of occupied orbitals:                                                224
 Number of molecular orbitals:                                               324

 Number of orbital functions:                                               1465
 Number of independent orbital functions:                                   1465

 Extrapolation method: initial_guess


 SCF WAVEFUNCTION OPTIMIZATION

  Step     Update method      Time    Convergence         Total energy    Change
  ------------------------------------------------------------------------------
     1 NoMix/Diag. 0.10E+00    3.3     0.45132263      -627.8926975268 -6.28E+02
     2 Broy./Diag. 0.10E+00    5.8     0.10405285      -603.5208882374  2.44E+01
     3 Broy./Diag. 0.10E+00    6.0     0.16288420      -611.3908776668 -7.87E+00
     4 Broy./Diag. 0.10E+00    6.1     7.57122463      -625.6319273883 -1.42E+01
     5 Broy./Diag. 0.10E+00    6.1     7.57118043      -607.0132277974  1.86E+01
     6 Broy./Diag. 0.10E+00    6.3     0.43197638      -629.9129809120 -2.29E+01
     7 Broy./Diag. 0.10E+00    6.4     0.11674761      -630.8959368566 -9.83E-01
     8 Broy./Diag. 0.10E+00    6.5     7.63678713      -631.3290377312 -4.33E-01
     9 Broy./Diag. 0.10E+00    6.6     7.64314628      -608.9383212386  2.24E+01
    10 Broy./Diag. 0.10E+00    6.8     7.58981776      -631.3826176147 -2.24E+01
    11 Broy./Diag. 0.10E+00    6.8     7.58984323      -540.3092330438  9.11E+01
    12 Broy./Diag. 0.10E+00    6.8     0.37965528      -630.5196211917 -9.02E+01
    13 Broy./Diag. 0.10E+00    6.8     7.60178597      -631.8610666417 -1.34E+00
    14 Broy./Diag. 0.10E+00    6.8     7.60178388      -562.7017645105  6.92E+01
    15 Broy./Diag. 0.10E+00    6.8     7.65193085      -631.9687317013 -6.93E+01
    16 Broy./Diag. 0.10E+00    6.8     7.65192756      -585.9348481045  4.60E+01
    17 Broy./Diag. 0.10E+00    6.8     0.14504500      -632.0974714116 -4.62E+01
    18 Broy./Diag. 0.10E+00    6.8     0.12263040      -631.5336464843  5.64E-01
    19 Broy./Diag. 0.10E+00    6.8     0.06018145      -632.0351423182 -5.01E-01
    20 Broy./Diag. 0.10E+00    6.8     0.04222762      -632.0398979690 -4.76E-03
    21 Broy./Diag. 0.10E+00    6.8     0.13506073      -632.0124656750  2.74E-02
    22 Broy./Diag. 0.10E+00    6.8     0.13274858      -631.7195349155  2.93E-01
    23 Broy./Diag. 0.10E+00    6.8     0.05313308      -631.9738761743 -2.54E-01
    24 Broy./Diag. 0.10E+00    6.8     0.02304203      -632.0902874125 -1.16E-01
    25 Broy./Diag. 0.10E+00    6.8     0.00771785      -632.1360173513 -4.57E-02
    26 Broy./Diag. 0.10E+00    6.8     0.02951175      -632.1683245056 -3.23E-02
    27 Broy./Diag. 0.10E+00    6.8     0.02121534      -632.1944015786 -2.61E-02
    28 Broy./Diag. 0.10E+00    6.8     0.01456503      -632.2381485805 -4.37E-02
    29 Broy./Diag. 0.10E+00    6.8     0.01069753      -632.3137422570 -7.56E-02
    30 Broy./Diag. 0.10E+00    6.7     0.01044884      -632.3840073389 -7.03E-02
    31 Broy./Diag. 0.10E+00    6.8     0.01273123      -632.3969457444 -1.29E-02
    32 Broy./Diag. 0.10E+00    6.8     0.02271235      -632.4152455758 -1.83E-02
    33 Broy./Diag. 0.10E+00    6.8     0.02871497      -632.4286097178 -1.34E-02
    34 Broy./Diag. 0.10E+00    6.8     0.02321011      -632.4291316816 -5.22E-04
    35 Broy./Diag. 0.10E+00    6.8     0.01155486      -632.4262796639  2.85E-03
    36 Broy./Diag. 0.10E+00    6.8     0.02473590      -632.4352496573 -8.97E-03
    37 Broy./Diag. 0.10E+00    6.8     0.02880796      -632.4428181781 -7.57E-03
    38 Broy./Diag. 0.10E+00    6.8     0.00490926      -632.4544263645 -1.16E-02
    39 Broy./Diag. 0.10E+00    6.8     0.00695634      -632.4663317129 -1.19E-02
    40 Broy./Diag. 0.10E+00    6.8     0.00457034      -632.4911322487 -2.48E-02
    41 Broy./Diag. 0.10E+00    6.7     0.00513086      -632.5082862822 -1.72E-02
    42 Broy./Diag. 0.10E+00    6.8     0.00561506      -632.5215175688 -1.32E-02
    43 Broy./Diag. 0.10E+00    6.8     0.00532018      -632.5323599502 -1.08E-02
    44 Broy./Diag. 0.10E+00    6.8     0.00517614      -632.5409914484 -8.63E-03
    45 Broy./Diag. 0.10E+00    6.8     0.00515143      -632.5451642530 -4.17E-03
    46 Broy./Diag. 0.10E+00    6.8     0.00555091      -632.5468087047 -1.64E-03
    47 Broy./Diag. 0.10E+00    6.8     0.00665083      -632.5509094041 -4.10E-03
    48 Broy./Diag. 0.10E+00    6.8     0.00469251      -632.5486119211  2.30E-03
    49 Broy./Diag. 0.10E+00    6.8     0.00175865      -632.5523719602 -3.76E-03
    50 Broy./Diag. 0.10E+00    6.8     0.00310110      -632.5496732900  2.70E-03
    51 Broy./Diag. 0.10E+00    6.8     0.00238107      -632.5492842229  3.89E-04
    52 Broy./Diag. 0.10E+00    6.8     0.00200936      -632.5467739967  2.51E-03
    53 Broy./Diag. 0.10E+00    6.8     0.00432183      -632.5394278032  7.35E-03
    54 Broy./Diag. 0.10E+00    6.8     0.00494713      -632.5375962849  1.83E-03
    55 Broy./Diag. 0.10E+00    6.8     0.00271598      -632.5350316360  2.56E-03
    56 Broy./Diag. 0.10E+00    6.8     0.00196080      -632.5364542301 -1.42E-03
    57 Broy./Diag. 0.10E+00    6.8     0.00077707      -632.5317852898  4.67E-03
    58 Broy./Diag. 0.10E+00    6.8     0.00149279      -632.5331227465 -1.34E-03
    59 Broy./Diag. 0.10E+00    6.8     0.00163800      -632.5349937767 -1.87E-03
    60 Broy./Diag. 0.10E+00    6.8     0.00254581      -632.5411825016 -6.19E-03
    61 Broy./Diag. 0.10E+00    6.8     0.00110653      -632.5480379714 -6.86E-03
    62 Broy./Diag. 0.10E+00    6.8     0.00047699      -632.5530566783 -5.02E-03
    63 Broy./Diag. 0.10E+00    6.8     0.00067899      -632.5554875785 -2.43E-03
    64 Broy./Diag. 0.10E+00    6.8     0.00046527      -632.5574491048 -1.96E-03
    65 Broy./Diag. 0.10E+00    6.7     0.00035797      -632.5610756064 -3.63E-03
    66 Broy./Diag. 0.10E+00    6.8     0.00071274      -632.5640836722 -3.01E-03
    67 Broy./Diag. 0.10E+00    6.8     0.00028775      -632.5655966090 -1.51E-03
    68 Broy./Diag. 0.10E+00    6.8     0.00054521      -632.5661630735 -5.66E-04
    69 Broy./Diag. 0.10E+00    6.8     0.00066489      -632.5665247494 -3.62E-04
    70 Broy./Diag. 0.10E+00    6.8     0.00041210      -632.5671484837 -6.24E-04
    71 Broy./Diag. 0.10E+00    6.8     0.00025248      -632.5679893846 -8.41E-04
    72 Broy./Diag. 0.10E+00    6.8     0.00015281      -632.5691562985 -1.17E-03
    73 Broy./Diag. 0.10E+00    6.8     0.00011839      -632.5700115784 -8.55E-04
    74 Broy./Diag. 0.10E+00    6.8     0.00029114      -632.5688654812  1.15E-03
    75 Broy./Diag. 0.10E+00    6.8     0.00016099      -632.5679564769  9.09E-04
    76 Broy./Diag. 0.10E+00    6.8     0.00011239      -632.5679949053 -3.84E-05
    77 Broy./Diag. 0.10E+00    6.8     0.00039589      -632.5684856121 -4.91E-04
    78 Broy./Diag. 0.10E+00    6.8     0.00008264      -632.5691644338 -6.79E-04
    79 Broy./Diag. 0.10E+00    6.8     0.00002935      -632.5696505787 -4.86E-04
    80 Broy./Diag. 0.10E+00    6.8     0.00005245      -632.5697672331 -1.17E-04
    81 Broy./Diag. 0.10E+00    6.8     0.00005302      -632.5696898964  7.73E-05
    82 Broy./Diag. 0.10E+00    6.8     0.00006844      -632.5694921921  1.98E-04
    83 Broy./Diag. 0.10E+00    6.8     0.00002590      -632.5693170594  1.75E-04
    84 Broy./Diag. 0.10E+00    6.8     0.00002230      -632.5695252681 -2.08E-04
    85 Broy./Diag. 0.10E+00    6.8     0.00001505      -632.5699242845 -3.99E-04
    86 Broy./Diag. 0.10E+00    6.8     0.00000790      -632.5702195578 -2.95E-04
    87 Broy./Diag. 0.10E+00    6.8     0.00001771      -632.5703116752 -9.21E-05
    88 Broy./Diag. 0.10E+00    6.8     0.00002002      -632.5703888019 -7.71E-05
    89 Broy./Diag. 0.10E+00    6.8     0.00001575      -632.5704978620 -1.09E-04
    90 Broy./Diag. 0.10E+00    6.8     0.00000825      -632.5705435301 -4.57E-05
    91 Broy./Diag. 0.10E+00    6.8     0.00001669      -632.5705835344 -4.00E-05
    92 Broy./Diag. 0.10E+00    6.8     0.00001026      -632.5706418483 -5.83E-05
    93 Broy./Diag. 0.10E+00    6.8     0.00001479      -632.5706989565 -5.71E-05
    94 Broy./Diag. 0.10E+00    6.8     0.00000886      -632.5707429233 -4.40E-05
    95 Broy./Diag. 0.10E+00    6.8     0.00001279      -632.5707644573 -2.15E-05
    96 Broy./Diag. 0.10E+00    6.8     0.00000602      -632.5707793332 -1.49E-05
    97 Broy./Diag. 0.10E+00    6.8     0.00000794      -632.5707695443  9.79E-06
    98 Broy./Diag. 0.10E+00    6.8     0.00000760      -632.5707532599  1.63E-05
    99 Broy./Diag. 0.10E+00    6.8     0.00000481      -632.5707375720  1.57E-05
   100 Broy./Diag. 0.10E+00    6.8     0.00000938      -632.5707296021  7.97E-06
   101 Broy./Diag. 0.10E+00    6.8     0.00001340      -632.5707303766 -7.75E-07
   102 Broy./Diag. 0.10E+00    6.8     0.00001225      -632.5707266952  3.68E-06
   103 Broy./Diag. 0.10E+00    6.8     0.00001460      -632.5707315300 -4.83E-06
   104 Broy./Diag. 0.10E+00    6.8     0.00000529      -632.5707316550 -1.25E-07
   105 Broy./Diag. 0.10E+00    6.8     0.00000430      -632.5707471284 -1.55E-05
   106 Broy./Diag. 0.10E+00    6.8     0.00000673      -632.5707517026 -4.57E-06
   107 Broy./Diag. 0.10E+00    6.8     0.00001125      -632.5707555134 -3.81E-06
   108 Broy./Diag. 0.10E+00    6.8     0.00000279      -632.5707573550 -1.84E-06
   109 Broy./Diag. 0.10E+00    6.8     0.00000709      -632.5707648384 -7.48E-06
   110 Broy./Diag. 0.10E+00    6.8     0.00000830      -632.5707732538 -8.42E-06
   111 Broy./Diag. 0.10E+00    6.8     0.00000524      -632.5707788933 -5.64E-06
   112 Broy./Diag. 0.10E+00    6.8     0.00000335      -632.5707823045 -3.41E-06
   113 Broy./Diag. 0.10E+00    6.8     0.00000454      -632.5707850653 -2.76E-06
   114 Broy./Diag. 0.10E+00    6.8     0.00000464      -632.5707881136 -3.05E-06
   115 Broy./Diag. 0.10E+00    6.8     0.00000720      -632.5707900575 -1.94E-06
   116 Broy./Diag. 0.10E+00    6.8     0.00000361      -632.5707931306 -3.07E-06
   117 Broy./Diag. 0.10E+00    6.8     0.00000499      -632.5707961787 -3.05E-06
   118 Broy./Diag. 0.10E+00    6.8     0.00000224      -632.5708025249 -6.35E-06
   119 Broy./Diag. 0.10E+00    6.8     0.00000302      -632.5708110920 -8.57E-06
   120 Broy./Diag. 0.10E+00    6.8     0.00000948      -632.5708216935 -1.06E-05
   121 Broy./Diag. 0.10E+00    6.8     0.00001159      -632.5708289610 -7.27E-06
   122 Broy./Diag. 0.10E+00    6.8     0.00000380      -632.5708366322 -7.67E-06
   123 Broy./Diag. 0.10E+00    6.8     0.00000559      -632.5708401941 -3.56E-06
   124 Broy./Diag. 0.10E+00    6.8     0.00000503      -632.5708450626 -4.87E-06
   125 Broy./Diag. 0.10E+00    6.8     0.00000650      -632.5708474269 -2.36E-06
   126 Broy./Diag. 0.10E+00    6.8     0.00000357      -632.5708498180 -2.39E-06
   127 Broy./Diag. 0.10E+00    6.8     0.00000745      -632.5708504315 -6.14E-07
   128 Broy./Diag. 0.10E+00    6.8     0.00000675      -632.5708518714 -1.44E-06
   129 Broy./Diag. 0.10E+00    6.8     0.00001043      -632.5708525398 -6.68E-07
   130 Broy./Diag. 0.10E+00    6.8     0.00000420      -632.5708514591  1.08E-06
   131 Broy./Diag. 0.10E+00    6.8     0.00000642      -632.5708516289 -1.70E-07
   132 Broy./Diag. 0.10E+00    6.8     0.00000152      -632.5708511488  4.80E-07
   133 Broy./Diag. 0.10E+00    6.8     0.00000211      -632.5708521037 -9.55E-07
   134 Broy./Diag. 0.10E+00    6.8     0.00000426      -632.5708525082 -4.04E-07
   135 Broy./Diag. 0.10E+00    6.8     0.00000497      -632.5708530423 -5.34E-07
   136 Broy./Diag. 0.10E+00    6.8     0.00001075      -632.5708538002 -7.58E-07
   137 Broy./Diag. 0.10E+00    6.8     0.00000513      -632.5708551291 -1.33E-06
   138 Broy./Diag. 0.10E+00    6.8     0.00000424      -632.5708567220 -1.59E-06
   139 Broy./Diag. 0.10E+00    6.8     0.00000413      -632.5708581571 -1.44E-06
   140 Broy./Diag. 0.10E+00    6.8     0.00000327      -632.5708590213 -8.64E-07
   141 Broy./Diag. 0.10E+00    6.8     0.00000135      -632.5708593118 -2.91E-07
   142 Broy./Diag. 0.10E+00    6.8     0.00000491      -632.5708600585 -7.47E-07
   143 Broy./Diag. 0.10E+00    6.8     0.00000166      -632.5708609020 -8.43E-07
   144 Broy./Diag. 0.10E+00    6.8     0.00000316      -632.5708609677 -6.58E-08
   145 Broy./Diag. 0.10E+00    6.8     0.00000275      -632.5708613462 -3.78E-07
   146 Broy./Diag. 0.10E+00    6.8     0.00000433      -632.5708609639  3.82E-07
   147 Broy./Diag. 0.10E+00    6.8     0.00000327      -632.5708609218  4.21E-08
   148 Broy./Diag. 0.10E+00    6.8     0.00000346      -632.5708610605 -1.39E-07
   149 Broy./Diag. 0.10E+00    6.8     0.00000143      -632.5708609529  1.08E-07
   150 Broy./Diag. 0.10E+00    6.8     0.00000208      -632.5708608492  1.04E-07
   151 Broy./Diag. 0.10E+00    6.8     0.00000192      -632.5708610878 -2.39E-07
   152 Broy./Diag. 0.10E+00    6.8     0.00000090      -632.5708611140 -2.62E-08
   153 Broy./Diag. 0.10E+00    6.8     0.00000274      -632.5708614143 -3.00E-07
   154 Broy./Diag. 0.10E+00    6.8     0.00000674      -632.5708617095 -2.95E-07
   155 Broy./Diag. 0.10E+00    6.8     0.00000845      -632.5708619657 -2.56E-07
   156 Broy./Diag. 0.10E+00    6.8     0.00000124      -632.5708629013 -9.36E-07
   157 Broy./Diag. 0.10E+00    6.8     0.00000292      -632.5708628749  2.64E-08
   158 Broy./Diag. 0.10E+00    6.8     0.00000379      -632.5708626645  2.10E-07
   159 Broy./Diag. 0.10E+00    6.8     0.00000298      -632.5708626219  4.26E-08
   160 Broy./Diag. 0.10E+00    6.8     0.00000860      -632.5708623430  2.79E-07
   161 Broy./Diag. 0.10E+00    6.8     0.00000558      -632.5708627314 -3.88E-07
   162 Broy./Diag. 0.10E+00    6.8     0.00001161      -632.5708619207  8.11E-07
   163 Broy./Diag. 0.10E+00    6.8     0.00000937      -632.5708624927 -5.72E-07
   164 Broy./Diag. 0.10E+00    6.8     0.00000361      -632.5708624672  2.55E-08
   165 Broy./Diag. 0.10E+00    6.8     0.00000493      -632.5708626239 -1.57E-07
   166 Broy./Diag. 0.10E+00    6.8     0.00000851      -632.5708627833 -1.59E-07
   167 Broy./Diag. 0.10E+00    6.8     0.00000539      -632.5708629149 -1.32E-07
   168 Broy./Diag. 0.10E+00    6.8     0.00000418      -632.5708629487 -3.39E-08
   169 Broy./Diag. 0.10E+00    6.8     0.00000296      -632.5708632100 -2.61E-07
   170 Broy./Diag. 0.10E+00    6.8     0.00000310      -632.5708629776  2.32E-07
   171 Broy./Diag. 0.10E+00    6.8     0.00000178      -632.5708628743  1.03E-07
   172 Broy./Diag. 0.10E+00    6.8     0.00000545      -632.5708635872 -7.13E-07
   173 Broy./Diag. 0.10E+00    6.8     0.00000308      -632.5708637642 -1.77E-07
   174 Broy./Diag. 0.10E+00    6.8     0.00000164      -632.5708636903  7.39E-08
   175 Broy./Diag. 0.10E+00    6.8     0.00000533      -632.5708635367  1.54E-07
   176 Broy./Diag. 0.10E+00    6.8     0.00000447      -632.5708635906 -5.39E-08
   177 Broy./Diag. 0.10E+00    6.8     0.00000300      -632.5708634224  1.68E-07
   178 Broy./Diag. 0.10E+00    6.8     0.00000275      -632.5708630531  3.69E-07
   179 Broy./Diag. 0.10E+00    6.8     0.00000365      -632.5708633732 -3.20E-07
   180 Broy./Diag. 0.10E+00    6.8     0.00000630      -632.5708634405 -6.74E-08
   181 Broy./Diag. 0.10E+00    6.8     0.00000169      -632.5708639428 -5.02E-07
   182 Broy./Diag. 0.10E+00    6.8     0.00000311      -632.5708636327  3.10E-07
   183 Broy./Diag. 0.10E+00    6.8     0.00000167      -632.5708634385  1.94E-07
   184 Broy./Diag. 0.10E+00    6.8     0.00000058      -632.5708635463 -1.08E-07
   185 Broy./Diag. 0.10E+00    6.8     0.00000300      -632.5708635498 -3.54E-09
   186 Broy./Diag. 0.10E+00    6.8     0.00000220      -632.5708633552  1.95E-07
   187 Broy./Diag. 0.10E+00    6.8     0.00000103      -632.5708634115 -5.63E-08
   188 Broy./Diag. 0.10E+00    6.8     0.00000214      -632.5708634154 -3.91E-09
   189 Broy./Diag. 0.10E+00    6.8     0.00000415      -632.5708634977 -8.23E-08
   190 Broy./Diag. 0.10E+00    6.8     0.00000588      -632.5708638334 -3.36E-07
   191 Broy./Diag. 0.10E+00    6.8     0.00000538      -632.5708634339  4.00E-07
   192 Broy./Diag. 0.10E+00    6.8     0.00000139      -632.5708636642 -2.30E-07
   193 Broy./Diag. 0.10E+00    6.8     0.00000160      -632.5708637992 -1.35E-07
   194 Broy./Diag. 0.10E+00    6.8     0.00000052      -632.5708637766  2.26E-08
   195 Broy./Diag. 0.10E+00    6.8     0.00000090      -632.5708637846 -7.97E-09
   196 Broy./Diag. 0.10E+00    6.8     0.00000242      -632.5708637838  7.52E-10
   197 Broy./Diag. 0.10E+00    6.8     0.00000209      -632.5708639812 -1.97E-07
   198 Broy./Diag. 0.10E+00    6.8     0.00000262      -632.5708637929  1.88E-07
   199 Broy./Diag. 0.10E+00    6.8     0.00000117      -632.5708640592 -2.66E-07
   200 Broy./Diag. 0.10E+00    6.8     0.00000223      -632.5708636173  4.42E-07
   201 Broy./Diag. 0.10E+00    6.8     0.00000244      -632.5708637162 -9.90E-08
   202 Broy./Diag. 0.10E+00    6.8     0.00000206      -632.5708641352 -4.19E-07
   203 Broy./Diag. 0.10E+00    6.8     0.00000265      -632.5708640397  9.55E-08
   204 Broy./Diag. 0.10E+00    6.8     0.00000117      -632.5708640814 -4.17E-08
   205 Broy./Diag. 0.10E+00    6.8     0.00000213      -632.5708639981  8.33E-08
   206 Broy./Diag. 0.10E+00    6.8     0.00000117      -632.5708641779 -1.80E-07
   207 Broy./Diag. 0.10E+00    6.8     0.00000274      -632.5708636559  5.22E-07
   208 Broy./Diag. 0.10E+00    6.8     0.00000730      -632.5708639758 -3.20E-07
   209 Broy./Diag. 0.10E+00    6.8     0.00000454      -632.5708647944 -8.19E-07
   210 Broy./Diag. 0.10E+00    6.8     0.00000641      -632.5708649755 -1.81E-07
   211 Broy./Diag. 0.10E+00    6.8     0.00000138      -632.5708644381  5.37E-07
   212 Broy./Diag. 0.10E+00    6.8     0.00000086      -632.5708643656  7.25E-08
   213 Broy./Diag. 0.10E+00    6.8     0.00000105      -632.5708643058  5.98E-08
   214 Broy./Diag. 0.10E+00    6.8     0.00000138      -632.5708642371  6.88E-08
   215 Broy./Diag. 0.10E+00    6.8     0.00000224      -632.5708642620 -2.49E-08
   216 Broy./Diag. 0.10E+00    6.8     0.00000189      -632.5708644179 -1.56E-07
   217 Broy./Diag. 0.10E+00    6.8     0.00000496      -632.5708644313 -1.34E-08
   218 Broy./Diag. 0.10E+00    6.8     0.00000872      -632.5708639434  4.88E-07
   219 Broy./Diag. 0.10E+00    6.8     0.00000675      -632.5708645102 -5.67E-07
   220 Broy./Diag. 0.10E+00    6.8     0.00000215      -632.5708644118  9.83E-08
   221 Broy./Diag. 0.10E+00    6.8     0.00000099      -632.5708644183 -6.42E-09
   222 Broy./Diag. 0.10E+00    6.8     0.00000192      -632.5708642694  1.49E-07
   223 Broy./Diag. 0.10E+00    6.8     0.00000079      -632.5708638826  3.87E-07
   224 Broy./Diag. 0.10E+00    6.8     0.00000224      -632.5708639220 -3.94E-08
   225 Broy./Diag. 0.10E+00    6.8     0.00000314      -632.5708639995 -7.75E-08
   226 Broy./Diag. 0.10E+00    6.8     0.00000082      -632.5708640224 -2.28E-08
   227 Broy./Diag. 0.10E+00    6.8     0.00000122      -632.5708641722 -1.50E-07
   228 Broy./Diag. 0.10E+00    6.8     0.00000089      -632.5708639449  2.27E-07
   229 Broy./Diag. 0.10E+00    6.8     0.00000214      -632.5708639790 -3.42E-08
   230 Broy./Diag. 0.10E+00    6.8     0.00000033      -632.5708643832 -4.04E-07
   231 Broy./Diag. 0.10E+00    6.8     0.00000048      -632.5708642826  1.01E-07
   232 Broy./Diag. 0.10E+00    6.8     0.00000189      -632.5708643270 -4.44E-08
   233 Broy./Diag. 0.10E+00    6.8     0.00000117      -632.5708643561 -2.91E-08
   234 Broy./Diag. 0.10E+00    6.8     0.00000083      -632.5708643870 -3.09E-08
   235 Broy./Diag. 0.10E+00    6.8     0.00000227      -632.5708643233  6.37E-08
   236 Broy./Diag. 0.10E+00    6.8     0.00000196      -632.5708642195  1.04E-07
   237 Broy./Diag. 0.10E+00    6.8     0.00000042      -632.5708642682 -4.87E-08
   238 Broy./Diag. 0.10E+00    6.8     0.00000105      -632.5708642509  1.73E-08
   239 Broy./Diag. 0.10E+00    6.8     0.00000206      -632.5708645100 -2.59E-07
   240 Broy./Diag. 0.10E+00    6.8     0.00000214      -632.5708645114 -1.42E-09
   241 Broy./Diag. 0.10E+00    6.8     0.00000237      -632.5708645211 -9.67E-09
   242 Broy./Diag. 0.10E+00    6.8     0.00000065      -632.5708644521  6.90E-08
   243 Broy./Diag. 0.10E+00    6.8     0.00000081      -632.5708644496  2.46E-09
   244 Broy./Diag. 0.10E+00    6.8     0.00000126      -632.5708645127 -6.31E-08
   245 Broy./Diag. 0.10E+00    6.8     0.00000255      -632.5708645492 -3.65E-08
   246 Broy./Diag. 0.10E+00    6.8     0.00000048      -632.5708648509 -3.02E-07
   247 Broy./Diag. 0.10E+00    6.8     0.00000069      -632.5708647711  7.99E-08
   248 Broy./Diag. 0.10E+00    6.8     0.00000117      -632.5708647030  6.81E-08
   249 Broy./Diag. 0.10E+00    6.8     0.00000150      -632.5708647413 -3.83E-08
   250 Broy./Diag. 0.10E+00    6.8     0.00000242      -632.5708649373 -1.96E-07
   251 Broy./Diag. 0.10E+00    6.8     0.00000092      -632.5708647208  2.17E-07
   252 Broy./Diag. 0.10E+00    6.8     0.00000158      -632.5708647976 -7.68E-08
   253 Broy./Diag. 0.10E+00    6.8     0.00000146      -632.5708647397  5.79E-08
   254 Broy./Diag. 0.10E+00    6.8     0.00000111      -632.5708647988 -5.91E-08
   255 Broy./Diag. 0.10E+00    6.8     0.00000062      -632.5708646940  1.05E-07
   256 Broy./Diag. 0.10E+00    6.8     0.00000063      -632.5708647221 -2.80E-08
   257 Broy./Diag. 0.10E+00    6.8     0.00000319      -632.5708646117  1.10E-07
   258 Broy./Diag. 0.10E+00    6.8     0.00000328      -632.5708648777 -2.66E-07
   259 Broy./Diag. 0.10E+00    6.8     0.00000172      -632.5708646166  2.61E-07
   260 Broy./Diag. 0.10E+00    6.8     0.00000039      -632.5708647143 -9.77E-08
   261 Broy./Diag. 0.10E+00    6.8     0.00000128      -632.5708647206 -6.28E-09
   262 Broy./Diag. 0.10E+00    6.8     0.00000124      -632.5708646969  2.37E-08
   263 Broy./Diag. 0.10E+00    6.8     0.00000084      -632.5708646415  5.55E-08
   264 Broy./Diag. 0.10E+00    6.8     0.00000416      -632.5708647081 -6.67E-08
   265 Broy./Diag. 0.10E+00    6.8     0.00000050      -632.5708650219 -3.14E-07
   266 Broy./Diag. 0.10E+00    6.8     0.00000223      -632.5708650237 -1.83E-09
   267 Broy./Diag. 0.10E+00    6.8     0.00000315      -632.5708649852  3.85E-08
   268 Broy./Diag. 0.10E+00    6.8     0.00000053      -632.5708647664  2.19E-07
   269 Broy./Diag. 0.10E+00    6.8     0.00000289      -632.5708647506  1.58E-08
   270 Broy./Diag. 0.10E+00    6.8     0.00000434      -632.5708650428 -2.92E-07
   271 Broy./Diag. 0.10E+00    6.8     0.00000421      -632.5708649015  1.41E-07
   272 Broy./Diag. 0.10E+00    6.8     0.00000251      -632.5708652132 -3.12E-07
   273 Broy./Diag. 0.10E+00    6.8     0.00000044      -632.5708654500 -2.37E-07
   274 Broy./Diag. 0.10E+00    6.8     0.00000027      -632.5708654202  2.99E-08

  *** SCF run converged in   274 steps ***


  Electronic density on regular grids:       -448.0000000000       -0.0000000000
  Core density on regular grids:              447.9999999996       -0.0000000004
  Total charge density on r-space grids:       -0.0000000004
  Total charge density g-space grids:          -0.0000000004

  Overlap energy of the core charge distribution:               0.00001865557362
  Self energy of the core charge distribution:              -1493.52088779770361
  Core Hamiltonian energy:                                    466.87958064424458
  Hartree energy:                                             585.25660159796428
  Exchange-correlation energy:                               -190.95865997447322
  Dispersion energy:                                           -0.22075422073812
  Electronic entropic energy:                                  -0.00676432486031
  Fermi energy:                                                -0.14672174635454

  Total energy:                                              -632.57086542015190

  outer SCF iter =    1 RMS gradient =   0.27E-06 energy =       -632.5708654202
  outer SCF loop converged in   1 iterations or  274 steps


  Integrated absolute spin density  :                               0.0004211963
  WARNING: S**2 computation does not yet treat fractional occupied orbitals

 *** WARNING in qs_loc_utils.F:1387 :: User requested the calculation of ***
 *** the localized wavefunction but the section LOCALIZE was not         ***
 *** specified. Localization will not be performed!                      ***


 -------------------------------------------------------------------------------
 -                                                                             -
 -  BSSE CALCULATION         FRAGMENT CONF: 11        FRAGMENT SUBCONF: 01     -
 -                           CHARGE =     0           MULTIPLICITY =     0     -
 -                                                                             -
 -                 ATOM INDEX                              ATOM NAME           -
 -                 ----------                              ---------           -
 -                      1                                   C_ghost            -
 -                      2                                   C_ghost            -
 -                      3                                   C_ghost            -
 -                      4                                   C_ghost            -
 -                      5                                   C_ghost            -
 -                      6                                   C_ghost            -
 -                      7                                   C_ghost            -
 -                      8                                   C_ghost            -
 -                      9                                   C_ghost            -
 -                     10                                   C_ghost            -
 -                     11                                   C_ghost            -
 -                     12                                   C_ghost            -
 -                     13                                   C_ghost            -
 -                     14                                   C_ghost            -
 -                     15                                   C_ghost            -
 -                     16                                   C_ghost            -
 -                     17                                   C_ghost            -
 -                     18                                   C_ghost            -
 -                     19                                   C_ghost            -
 -                     20                                   C_ghost            -
 -                     21                                   C_ghost            -
 -                     22                                   C_ghost            -
 -                     23                                   C_ghost            -
 -                     24                                   C_ghost            -
 -                     25                                   C_ghost            -
 -                     26                                   C_ghost            -
 -                     27                                   C_ghost            -
 -                     28                                   C_ghost            -
 -                     29                                   C_ghost            -
 -                     30                                   C_ghost            -
 -                     31                                   C_ghost            -
 -                     32                                   C_ghost            -
 -                     33                                   C_ghost            -
 -                     34                                   C_ghost            -
 -                     35                                   C_ghost            -
 -                     36                                   C_ghost            -
 -                     37                                   C_ghost            -
 -                     38                                   C_ghost            -
 -                     39                                   C_ghost            -
 -                     40                                   C_ghost            -
 -                     41                                   C_ghost            -
 -                     42                                   C_ghost            -
 -                     43                                   C_ghost            -
 -                     44                                   C_ghost            -
 -                     45                                   C_ghost            -
 -                     46                                   C_ghost            -
 -                     47                                   C_ghost            -
 -                     48                                   C_ghost            -
 -                     49                                   C_ghost            -
 -                     50                                   C_ghost            -
 -                     51                                   C_ghost            -
 -                     52                                   C_ghost            -
 -                     53                                   C_ghost            -
 -                     54                                   C_ghost            -
 -                     55                                   C_ghost            -
 -                     56                                   C_ghost            -
 -                     57                                   C_ghost            -
 -                     58                                   C_ghost            -
 -                     59                                   C_ghost            -
 -                     60                                   C_ghost            -
 -                     61                                   C_ghost            -
 -                     62                                   C_ghost            -
 -                     63                                   C_ghost            -
 -                     64                                   C_ghost            -
 -                     65                                   C_ghost            -
 -                     66                                   C_ghost            -
 -                     67                                   C_ghost            -
 -                     68                                   C_ghost            -
 -                     69                                   C_ghost            -
 -                     70                                   C_ghost            -
 -                     71                                   C_ghost            -
 -                     72                                   C_ghost            -
 -                     73                                   C_ghost            -
 -                     74                                   C_ghost            -
 -                     75                                   C_ghost            -
 -                     76                                   C_ghost            -
 -                     77                                   C_ghost            -
 -                     78                                   C_ghost            -
 -                     79                                   C_ghost            -
 -                     80                                   C_ghost            -
 -                     81                                   C_ghost            -
 -                     82                                   C_ghost            -
 -                     83                                   C_ghost            -
 -                     84                                   C_ghost            -
 -                     85                                   C_ghost            -
 -                     86                                   C_ghost            -
 -                     87                                   C_ghost            -
 -                     88                                   C_ghost            -
 -                     89                                   C_ghost            -
 -                     90                                   C_ghost            -
 -                     91                                   C_ghost            -
 -                     92                                   C_ghost            -
 -                     93                                   C_ghost            -
 -                     94                                   C_ghost            -
 -                     95                                   C_ghost            -
 -                     96                                   C_ghost            -
 -                     97                                   C_ghost            -
 -                     98                                   C_ghost            -
 -                     99                                   C_ghost            -
 -                    100                                   C_ghost            -
 -                    101                                   C_ghost            -
 -                    102                                   C_ghost            -
 -                    103                                   C_ghost            -
 -                    104                                   C_ghost            -
 -                    105                                   C_ghost            -
 -                    106                                   C_ghost            -
 -                    107                                   C_ghost            -
 -                    108                                   C_ghost            -
 -                    109                                   C_ghost            -
 -                    110                                   C_ghost            -
 -                    111                                   C_ghost            -
 -                    112                                   C_ghost            -
 -                    113                                   Na                 -
 -------------------------------------------------------------------------------

 *******************************************************************************
 *******************************************************************************
 **                                                                           **
 **     #####                         ##              ##                      **
 **    ##   ##            ##          ##              ##                      **
 **   ##     ##                       ##            ######                    **
 **   ##     ##  ##   ##  ##   #####  ##  ##   ####   ##    #####    #####    **
 **   ##     ##  ##   ##  ##  ##      ## ##   ##      ##   ##   ##  ##   ##   **
 **   ##  ## ##  ##   ##  ##  ##      ####     ###    ##   ######   ######    **
 **    ##  ###   ##   ##  ##  ##      ## ##      ##   ##   ##       ##        **
 **     #######   #####   ##   #####  ##  ##  ####    ##    #####   ##        **
 **           ##                                                    ##        **
 **                                                                           **
 **                                                ... make the atoms dance   **
 **                                                                           **
 **            Copyright (C) by CP2K developers group (2000 - 2018)           **
 **                                                                           **
 *******************************************************************************


 TOTAL NUMBERS AND MAXIMUM NUMBERS

  Total number of            - Atomic kinds:                                   2
                             - Atoms:                                        113
                             - Shell sets:                                   113
                             - Shells:                                       565
                             - Primitive Cartesian functions:                567
                             - Cartesian basis functions:                   1577
                             - Spherical basis functions:                   1465

  Maximum angular momentum of- Orbital basis functions:                        2
                             - Local part of the GTH pseudopotential:          2
                             - Non-local part of the GTH pseudopotential:      1


 SCF PARAMETERS         Density guess:                                    ATOMIC
                        --------------------------------------------------------
                        max_scf:                                             400
                        max_scf_history:                                       0
                        max_diis:                                              4
                        --------------------------------------------------------
                        eps_scf:                                        3.00E-07
                        eps_scf_history:                                0.00E+00
                        eps_diis:                                       1.00E-01
                        eps_eigval:                                     1.00E-05
                        --------------------------------------------------------
                        level_shift [a.u.]:                                 0.00
                        added MOs                                       100  100
                        --------------------------------------------------------
                        Mixing method:                            BROYDEN_MIXING
                                                charge density mixing in g-space
                        --------------------------------------------------------
                        Smear method:                                FERMI_DIRAC
                        Electronic temperature [K]:                        300.0
                        Electronic temperature [a.u.]:                  9.50E-04
                        Accuracy threshold:                             1.00E-10
                        --------------------------------------------------------
                        Outer loop SCF in use 
                        No variables optimised in outer loop
                        eps_scf                                         1.00E-06
                        max_scf                                              100
                        DIIS optimization
                        DIIS buffer length                                     3
                        step_size                                       5.00E-01

 Spin 1

 Number of electrons:                                                          5
 Number of occupied orbitals:                                                  5
 Number of molecular orbitals:                                               105

 Spin 2

 Number of electrons:                                                          4
 Number of occupied orbitals:                                                  4
 Number of molecular orbitals:                                               104

 Number of orbital functions:                                               1465
 Number of independent orbital functions:                                   1465

 Extrapolation method: initial_guess


 SCF WAVEFUNCTION OPTIMIZATION

  Step     Update method      Time    Convergence         Total energy    Change
  ------------------------------------------------------------------------------
     1 NoMix/Diag. 0.10E+00    3.2     0.36245943       -47.1638767315 -4.72E+01
     2 Broy./Diag. 0.10E+00    6.0     0.01262226       -47.1426531087  2.12E-02
     3 Broy./Diag. 0.10E+00    6.1     0.07449229       -47.1641025571 -2.14E-02
     4 Broy./Diag. 0.10E+00    6.1     0.00087815       -47.1472399117  1.69E-02
     5 Broy./Diag. 0.10E+00    6.2     0.00675060       -47.1577523429 -1.05E-02
     6 Broy./Diag. 0.10E+00    6.3     0.00748221       -47.1510876616  6.66E-03
     7 Broy./Diag. 0.10E+00    6.4     0.01078466       -47.1560666904 -4.98E-03
     8 Broy./Diag. 0.10E+00    6.5     0.00429274       -47.1679618484 -1.19E-02
     9 Broy./Diag. 0.10E+00    6.7     0.00383268       -47.1703340338 -2.37E-03
    10 Broy./Diag. 0.10E+00    6.8     0.00286105       -47.1730052930 -2.67E-03
    11 Broy./Diag. 0.10E+00    6.8     0.00066953       -47.1767500615 -3.74E-03
    12 Broy./Diag. 0.10E+00    6.8     0.00370023       -47.1702652930  6.48E-03
    13 Broy./Diag. 0.10E+00    6.8     0.00430558       -47.1698494923  4.16E-04
    14 Broy./Diag. 0.10E+00    6.8     0.00404180       -47.1684994491  1.35E-03
    15 Broy./Diag. 0.10E+00    6.8     0.00047212       -47.1679585469  5.41E-04
    16 Broy./Diag. 0.10E+00    6.8     0.00014898       -47.1676776313  2.81E-04
    17 Broy./Diag. 0.10E+00    6.8     0.00037879       -47.1655985652  2.08E-03
    18 Broy./Diag. 0.10E+00    6.8     0.00022960       -47.1630625388  2.54E-03
    19 Broy./Diag. 0.10E+00    6.8     0.00024569       -47.1576854360  5.38E-03
    20 Broy./Diag. 0.10E+00    6.8     0.00015224       -47.1548940369  2.79E-03
    21 Broy./Diag. 0.10E+00    6.8     0.00021749       -47.1521946936  2.70E-03
    22 Broy./Diag. 0.10E+00    6.8     0.00008270       -47.1523381515 -1.43E-04
    23 Broy./Diag. 0.10E+00    6.8     0.00009612       -47.1549927122 -2.65E-03
    24 Broy./Diag. 0.10E+00    6.8     0.00033566       -47.1604995791 -5.51E-03
    25 Broy./Diag. 0.10E+00    6.8     0.00006185       -47.1618138662 -1.31E-03
    26 Broy./Diag. 0.10E+00    6.8     0.00024579       -47.1601327423  1.68E-03
    27 Broy./Diag. 0.10E+00    6.8     0.00032714       -47.1590533227  1.08E-03
    28 Broy./Diag. 0.10E+00    6.8     0.00010745       -47.1583364259  7.17E-04
    29 Broy./Diag. 0.10E+00    6.8     0.00018566       -47.1574446518  8.92E-04
    30 Broy./Diag. 0.10E+00    6.8     0.00017823       -47.1561873880  1.26E-03
    31 Broy./Diag. 0.10E+00    6.8     0.00007942       -47.1551450425  1.04E-03
    32 Broy./Diag. 0.10E+00    6.8     0.00020449       -47.1552601458 -1.15E-04
    33 Broy./Diag. 0.10E+00    6.8     0.00002320       -47.1553537663 -9.36E-05
    34 Broy./Diag. 0.10E+00    6.8     0.00013136       -47.1552203387  1.33E-04
    35 Broy./Diag. 0.10E+00    6.8     0.00004314       -47.1550986105  1.22E-04
    36 Broy./Diag. 0.10E+00    6.8     0.00008687       -47.1549935596  1.05E-04
    37 Broy./Diag. 0.10E+00    6.8     0.00002562       -47.1549173373  7.62E-05
    38 Broy./Diag. 0.10E+00    6.8     0.00001541       -47.1549273534 -1.00E-05
    39 Broy./Diag. 0.10E+00    6.8     0.00004293       -47.1549183597  8.99E-06
    40 Broy./Diag. 0.10E+00    6.8     0.00002394       -47.1547831288  1.35E-04
    41 Broy./Diag. 0.10E+00    6.8     0.00001641       -47.1547026048  8.05E-05
    42 Broy./Diag. 0.10E+00    6.8     0.00003003       -47.1546925078  1.01E-05
    43 Broy./Diag. 0.10E+00    6.8     0.00002270       -47.1547330792 -4.06E-05
    44 Broy./Diag. 0.10E+00    6.8     0.00002947       -47.1547734301 -4.04E-05
    45 Broy./Diag. 0.10E+00    6.8     0.00000937       -47.1547576764  1.58E-05
    46 Broy./Diag. 0.10E+00    6.8     0.00001098       -47.1547639822 -6.31E-06
    47 Broy./Diag. 0.10E+00    6.8     0.00001158       -47.1548129513 -4.90E-05
    48 Broy./Diag. 0.10E+00    6.8     0.00000358       -47.1548637538 -5.08E-05
    49 Broy./Diag. 0.10E+00    6.8     0.00001420       -47.1548478279  1.59E-05
    50 Broy./Diag. 0.10E+00    6.8     0.00000711       -47.1549095633 -6.17E-05
    51 Broy./Diag. 0.10E+00    6.8     0.00000790       -47.1548658991  4.37E-05
    52 Broy./Diag. 0.10E+00    6.8     0.00000986       -47.1548099722  5.59E-05
    53 Broy./Diag. 0.10E+00    6.8     0.00000314       -47.1547775842  3.24E-05
    54 Broy./Diag. 0.10E+00    6.8     0.00000684       -47.1547626563  1.49E-05
    55 Broy./Diag. 0.10E+00    6.7     0.00000820       -47.1547630898 -4.34E-07
    56 Broy./Diag. 0.10E+00    6.8     0.00000596       -47.1546441896  1.19E-04
    57 Broy./Diag. 0.10E+00    6.8     0.00000792       -47.1546078647  3.63E-05
    58 Broy./Diag. 0.10E+00    6.7     0.00001674       -47.1546457625 -3.79E-05
    59 Broy./Diag. 0.10E+00    6.7     0.00000345       -47.1547032609 -5.75E-05
    60 Broy./Diag. 0.10E+00    6.7     0.00000841       -47.1547144402 -1.12E-05
    61 Broy./Diag. 0.10E+00    6.7     0.00000460       -47.1547290904 -1.47E-05
    62 Broy./Diag. 0.10E+00    6.8     0.00000155       -47.1547283238  7.67E-07
    63 Broy./Diag. 0.10E+00    6.7     0.00000385       -47.1547218439  6.48E-06
    64 Broy./Diag. 0.10E+00    6.7     0.00000307       -47.1547193191  2.52E-06
    65 Broy./Diag. 0.10E+00    6.7     0.00000342       -47.1547260928 -6.77E-06
    66 Broy./Diag. 0.10E+00    6.7     0.00000108       -47.1547238790  2.21E-06
    67 Broy./Diag. 0.10E+00    6.7     0.00000458       -47.1547094394  1.44E-05
    68 Broy./Diag. 0.10E+00    6.8     0.00000129       -47.1547279134 -1.85E-05
    69 Broy./Diag. 0.10E+00    6.8     0.00000208       -47.1547271943  7.19E-07
    70 Broy./Diag. 0.10E+00    6.8     0.00000549       -47.1547251366  2.06E-06
    71 Broy./Diag. 0.10E+00    6.8     0.00000074       -47.1547264440 -1.31E-06
    72 Broy./Diag. 0.10E+00    6.8     0.00000128       -47.1547209398  5.50E-06
    73 Broy./Diag. 0.10E+00    6.8     0.00000183       -47.1547254297 -4.49E-06
    74 Broy./Diag. 0.10E+00    6.8     0.00000055       -47.1547322750 -6.85E-06
    75 Broy./Diag. 0.10E+00    6.8     0.00000041       -47.1547314327  8.42E-07
    76 Broy./Diag. 0.10E+00    6.8     0.00000113       -47.1547292126  2.22E-06
    77 Broy./Diag. 0.10E+00    6.8     0.00000087       -47.1547273868  1.83E-06
    78 Broy./Diag. 0.10E+00    6.8     0.00000092       -47.1547278406 -4.54E-07
    79 Broy./Diag. 0.10E+00    6.8     0.00000131       -47.1547279169 -7.64E-08
    80 Broy./Diag. 0.10E+00    6.8     0.00000081       -47.1547300508 -2.13E-06
    81 Broy./Diag. 0.10E+00    6.8     0.00000132       -47.1547293618  6.89E-07
    82 Broy./Diag. 0.10E+00    6.8     0.00000058       -47.1547271610  2.20E-06
    83 Broy./Diag. 0.10E+00    6.8     0.00000131       -47.1547258192  1.34E-06
    84 Broy./Diag. 0.10E+00    6.8     0.00000079       -47.1547272137 -1.39E-06
    85 Broy./Diag. 0.10E+00    6.8     0.00000116       -47.1547282784 -1.06E-06
    86 Broy./Diag. 0.10E+00    6.8     0.00000217       -47.1547252406  3.04E-06
    87 Broy./Diag. 0.10E+00    6.8     0.00000259       -47.1547337191 -8.48E-06
    88 Broy./Diag. 0.10E+00    6.8     0.00000331       -47.1547368813 -3.16E-06
    89 Broy./Diag. 0.10E+00    6.8     0.00000758       -47.1547311491  5.73E-06
    90 Broy./Diag. 0.10E+00    6.8     0.00000166       -47.1547616255 -3.05E-05
    91 Broy./Diag. 0.10E+00    6.8     0.00000321       -47.1547578943  3.73E-06
    92 Broy./Diag. 0.10E+00    6.8     0.00000101       -47.1547703634 -1.25E-05
    93 Broy./Diag. 0.10E+00    6.8     0.00000085       -47.1547686784  1.69E-06
    94 Broy./Diag. 0.10E+00    6.8     0.00000063       -47.1547684067  2.72E-07
    95 Broy./Diag. 0.10E+00    6.8     0.00000203       -47.1547681279  2.79E-07
    96 Broy./Diag. 0.10E+00    6.8     0.00000201       -47.1547730512 -4.92E-06
    97 Broy./Diag. 0.10E+00    6.8     0.00000036       -47.1547836138 -1.06E-05
    98 Broy./Diag. 0.10E+00    6.8     0.00000075       -47.1547828734  7.40E-07
    99 Broy./Diag. 0.10E+00    6.8     0.00000056       -47.1547794454  3.43E-06
   100 Broy./Diag. 0.10E+00    6.8     0.00000078       -47.1547769000  2.55E-06
   101 Broy./Diag. 0.10E+00    6.8     0.00000088       -47.1547743961  2.50E-06
   102 Broy./Diag. 0.10E+00    6.8     0.00000070       -47.1547779722 -3.58E-06
   103 Broy./Diag. 0.10E+00    6.8     0.00000070       -47.1547817654 -3.79E-06
   104 Broy./Diag. 0.10E+00    6.8     0.00000050       -47.1547794663  2.30E-06
   105 Broy./Diag. 0.10E+00    6.8     0.00000172       -47.1547749359  4.53E-06
   106 Broy./Diag. 0.10E+00    6.8     0.00000062       -47.1547793419 -4.41E-06
   107 Broy./Diag. 0.10E+00    6.8     0.00000136       -47.1547807446 -1.40E-06
   108 Broy./Diag. 0.10E+00    6.8     0.00000050       -47.1547790838  1.66E-06
   109 Broy./Diag. 0.10E+00    6.8     0.00000079       -47.1547758283  3.26E-06
   110 Broy./Diag. 0.10E+00    6.7     0.00000325       -47.1547607083  1.51E-05
   111 Broy./Diag. 0.10E+00    6.8     0.00000057       -47.1547578024  2.91E-06
   112 Broy./Diag. 0.10E+00    6.7     0.00000236       -47.1547609805 -3.18E-06
   113 Broy./Diag. 0.10E+00    6.8     0.00000070       -47.1547625355 -1.55E-06
   114 Broy./Diag. 0.10E+00    6.7     0.00000080       -47.1547571480  5.39E-06
   115 Broy./Diag. 0.10E+00    6.7     0.00000078       -47.1547484522  8.70E-06
   116 Broy./Diag. 0.10E+00    6.7     0.00000127       -47.1547420584  6.39E-06
   117 Broy./Diag. 0.10E+00    6.7     0.00000236       -47.1547354423  6.62E-06
   118 Broy./Diag. 0.10E+00    6.7     0.00000115       -47.1547311575  4.28E-06
   119 Broy./Diag. 0.10E+00    6.7     0.00000094       -47.1547254057  5.75E-06
   120 Broy./Diag. 0.10E+00    6.7     0.00000090       -47.1547255781 -1.72E-07
   121 Broy./Diag. 0.10E+00    6.7     0.00000026       -47.1547268340 -1.26E-06

  *** SCF run converged in   121 steps ***


  Electronic density on regular grids:         -8.9999348803        0.0000651197
  Core density on regular grids:                9.0000000000       -0.0000000000
  Total charge density on r-space grids:        0.0000651197
  Total charge density g-space grids:           0.0000651197

  Overlap energy of the core charge distribution:               0.00000000000000
  Self energy of the core charge distribution:                -96.60649019442629
  Core Hamiltonian energy:                                     29.74232332484864
  Hartree energy:                                              26.75295541243306
  Exchange-correlation energy:                                 -7.04351407027605
  Dispersion energy:                                           -0.00000130538029
  Electronic entropic energy:                                  -0.00000000123573
  Fermi energy:                                                -0.08528867141089

  Total energy:                                               -47.15472683404231

  outer SCF iter =    1 RMS gradient =   0.26E-06 energy =        -47.1547268340
  outer SCF loop converged in   1 iterations or  121 steps


  Integrated absolute spin density  :                               1.0000150207
  WARNING: S**2 computation does not yet treat fractional occupied orbitals

 *** WARNING in qs_loc_utils.F:1387 :: User requested the calculation of ***
 *** the localized wavefunction but the section LOCALIZE was not         ***
 *** specified. Localization will not be performed!                      ***


 -------------------------------------------------------------------------------
 -                                                                             -
 -  BSSE CALCULATION         FRAGMENT CONF: 11        FRAGMENT SUBCONF: 11     -
 -                           CHARGE =     0           MULTIPLICITY =     0     -
 -                                                                             -
 -                 ATOM INDEX                              ATOM NAME           -
 -                 ----------                              ---------           -
 -                      1                                   C                  -
 -                      2                                   C                  -
 -                      3                                   C                  -
 -                      4                                   C                  -
 -                      5                                   C                  -
 -                      6                                   C                  -
 -                      7                                   C                  -
 -                      8                                   C                  -
 -                      9                                   C                  -
 -                     10                                   C                  -
 -                     11                                   C                  -
 -                     12                                   C                  -
 -                     13                                   C                  -
 -                     14                                   C                  -
 -                     15                                   C                  -
 -                     16                                   C                  -
 -                     17                                   C                  -
 -                     18                                   C                  -
 -                     19                                   C                  -
 -                     20                                   C                  -
 -                     21                                   C                  -
 -                     22                                   C                  -
 -                     23                                   C                  -
 -                     24                                   C                  -
 -                     25                                   C                  -
 -                     26                                   C                  -
 -                     27                                   C                  -
 -                     28                                   C                  -
 -                     29                                   C                  -
 -                     30                                   C                  -
 -                     31                                   C                  -
 -                     32                                   C                  -
 -                     33                                   C                  -
 -                     34                                   C                  -
 -                     35                                   C                  -
 -                     36                                   C                  -
 -                     37                                   C                  -
 -                     38                                   C                  -
 -                     39                                   C                  -
 -                     40                                   C                  -
 -                     41                                   C                  -
 -                     42                                   C                  -
 -                     43                                   C                  -
 -                     44                                   C                  -
 -                     45                                   C                  -
 -                     46                                   C                  -
 -                     47                                   C                  -
 -                     48                                   C                  -
 -                     49                                   C                  -
 -                     50                                   C                  -
 -                     51                                   C                  -
 -                     52                                   C                  -
 -                     53                                   C                  -
 -                     54                                   C                  -
 -                     55                                   C                  -
 -                     56                                   C                  -
 -                     57                                   C                  -
 -                     58                                   C                  -
[...]
   329 Broy./Diag. 0.10E+00    6.9     0.00000407      -679.7813451378 -1.63E-06
   330 Broy./Diag. 0.10E+00    6.9     0.00000529      -679.7813451193  1.85E-08
   331 Broy./Diag. 0.10E+00    6.8     0.00000757      -679.7813439566  1.16E-06
   332 Broy./Diag. 0.10E+00    6.8     0.00000505      -679.7813434360  5.21E-07
   333 Broy./Diag. 0.10E+00    6.8     0.00001005      -679.7813441642 -7.28E-07
   334 Broy./Diag. 0.10E+00    6.8     0.00000310      -679.7813421654  2.00E-06
   335 Broy./Diag. 0.10E+00    6.9     0.00000799      -679.7813439084 -1.74E-06
   336 Broy./Diag. 0.10E+00    6.8     0.00000726      -679.7813459388 -2.03E-06
   337 Broy./Diag. 0.10E+00    6.8     0.00000624      -679.7813460779 -1.39E-07
   338 Broy./Diag. 0.10E+00    6.9     0.00000933      -679.7813445304  1.55E-06
   339 Broy./Diag. 0.10E+00    6.8     0.00000819      -679.7813420723  2.46E-06
   340 Broy./Diag. 0.10E+00    6.8     0.00001087      -679.7813445105 -2.44E-06
   341 Broy./Diag. 0.10E+00    6.8     0.00000564      -679.7813427050  1.81E-06
   342 Broy./Diag. 0.10E+00    6.9     0.00000604      -679.7813433049 -6.00E-07
   343 Broy./Diag. 0.10E+00    6.8     0.00000113      -679.7813426222  6.83E-07
   344 Broy./Diag. 0.10E+00    6.8     0.00000448      -679.7813428112 -1.89E-07
   345 Broy./Diag. 0.10E+00    6.9     0.00000820      -679.7813436343 -8.23E-07
   346 Broy./Diag. 0.10E+00    6.8     0.00000397      -679.7813448820 -1.25E-06
   347 Broy./Diag. 0.10E+00    6.8     0.00000871      -679.7813436497  1.23E-06
   348 Broy./Diag. 0.10E+00    6.8     0.00000427      -679.7813428021  8.48E-07
   349 Broy./Diag. 0.10E+00    6.9     0.00000642      -679.7813430959 -2.94E-07
   350 Broy./Diag. 0.10E+00    6.8     0.00000477      -679.7813445599 -1.46E-06
   351 Broy./Diag. 0.10E+00    6.8     0.00000501      -679.7813443405  2.19E-07
   352 Broy./Diag. 0.10E+00    6.8     0.00000503      -679.7813458356 -1.50E-06
   353 Broy./Diag. 0.10E+00    6.8     0.00000424      -679.7813459743 -1.39E-07
   354 Broy./Diag. 0.10E+00    6.8     0.00000292      -679.7813456599  3.14E-07
   355 Broy./Diag. 0.10E+00    6.8     0.00001635      -679.7813448972  7.63E-07
   356 Broy./Diag. 0.10E+00    6.8     0.00000934      -679.7813427459  2.15E-06
   357 Broy./Diag. 0.10E+00    6.8     0.00000607      -679.7813437960 -1.05E-06
   358 Broy./Diag. 0.10E+00    6.8     0.00000460      -679.7813444755 -6.80E-07
   359 Broy./Diag. 0.10E+00    6.9     0.00000879      -679.7813429614  1.51E-06
   360 Broy./Diag. 0.10E+00    6.8     0.00000462      -679.7813476823 -4.72E-06
   361 Broy./Diag. 0.10E+00    6.8     0.00001681      -679.7813441345  3.55E-06
   362 Broy./Diag. 0.10E+00    6.8     0.00000561      -679.7813465322 -2.40E-06
   363 Broy./Diag. 0.10E+00    6.9     0.00000704      -679.7813459330  5.99E-07
   364 Broy./Diag. 0.10E+00    6.8     0.00000518      -679.7813481231 -2.19E-06
   365 Broy./Diag. 0.10E+00    6.8     0.00000544      -679.7813482261 -1.03E-07
   366 Broy./Diag. 0.10E+00    6.9     0.00000020      -679.7813453757  2.85E-06

  *** SCF run converged in   366 steps ***


  Electronic density on regular grids:       -456.9999346287        0.0000653713
  Core density on regular grids:              456.9999999996       -0.0000000004
  Total charge density on r-space grids:        0.0000653709
  Total charge density g-space grids:           0.0000653709

  Overlap energy of the core charge distribution:               0.00001865557362
  Self energy of the core charge distribution:              -1590.12737799212982
  Core Hamiltonian energy:                                    496.86128096859863
  Hartree energy:                                             611.89217938492652
  Exchange-correlation energy:                               -198.16620048160726
  Dispersion energy:                                           -0.23330273140725
  Electronic entropic energy:                                  -0.00794317996971
  Fermi energy:                                                -0.13322921646484

  Total energy:                                              -679.78134537568826

  outer SCF iter =   10 RMS gradient =   0.20E-06 energy =       -679.7813453757
  outer SCF loop converged in  10 iterations or 3966 steps


  Integrated absolute spin density  :                               0.0840337315
  WARNING: S**2 computation does not yet treat fractional occupied orbitals

 *** WARNING in qs_loc_utils.F:1387 :: User requested the calculation of ***
 *** the localized wavefunction but the section LOCALIZE was not         ***
 *** specified. Localization will not be performed!                      ***


 -------------------------------------------------------------------------------
 -                                                                             -
 -                                 BSSE RESULTS                                -
 -                                                                             -
 -                 CP-corrected Total energy:     -679.779966                  -
 -                                                                             -
 -                       1-body contribution:     -632.569738                  -
 -                       1-body contribution:      -47.154475                  -
 -                                                                             -
 -                       2-body contribution:       -0.055753                  -
 -                 BSSE-free interaction energy:       -0.055753               -
 -------------------------------------------------------------------------------

 -------------------------------------------------------------------------------
 -                                                                             -
 -                                DBCSR STATISTICS                             -
 -                                                                             -
 -------------------------------------------------------------------------------
 COUNTER                                    TOTAL       BLAS       SMM       ACC
 flops     9 x     9 x     8               156816       0.0%    100.0%      0.0%
 flops     9 x     9 x     9               176418       0.0%    100.0%      0.0%
 flops     9 x     9 x    32              3763584       0.0%    100.0%      0.0%
 flops     9 x     9 x    68              6036768       0.0%    100.0%      0.0%
 flops     9 x    13 x     8             11552112       0.0%    100.0%      0.0%
 flops    13 x     9 x     8             12005136       0.0%    100.0%      0.0%
 flops     9 x    13 x     9             12996126       0.0%    100.0%      0.0%
 flops    13 x     9 x     9             13505778       0.0%    100.0%      0.0%
 flops     9 x     9 x    72             46259424       0.0%    100.0%      0.0%
 flops     9 x     9 x    73             46901916       0.0%    100.0%      0.0%
 flops     9 x     9 x    64             87920640       0.0%    100.0%      0.0%
 flops     9 x     9 x    96            263761920       0.0%    100.0%      0.0%
 flops     9 x    13 x    32            277250688       0.0%    100.0%      0.0%
 flops    13 x     9 x    32            288123264       0.0%    100.0%      0.0%
 flops     9 x    13 x    68            444708576       0.0%    100.0%      0.0%
 flops    13 x     9 x    68            462148128       0.0%    100.0%      0.0%
 flops    13 x    13 x     8           1861022592       0.0%    100.0%      0.0%
 flops    13 x    13 x     9           2093650416       0.0%    100.0%      0.0%
 flops     9 x    13 x    72           3407777568       0.0%    100.0%      0.0%
 flops     9 x    13 x    73           3455107812       0.0%    100.0%      0.0%
 flops    13 x     9 x    72           3541415904       0.0%    100.0%      0.0%
 flops    13 x     9 x    73           3590602236       0.0%    100.0%      0.0%
 flops     9 x    13 x    64           6476820480       0.0%    100.0%      0.0%
 flops    13 x     9 x    64           6730813440       0.0%    100.0%      0.0%
 flops     9 x    13 x    96          19430461440       0.0%    100.0%      0.0%
 flops    13 x     9 x    96          20192440320       0.0%    100.0%      0.0%
 flops    13 x    13 x    32          44664542208       0.0%    100.0%      0.0%
 flops    13 x    13 x    68          71641679616       0.0%    100.0%      0.0%
 flops    13 x    13 x    72         548986284288       0.0%    100.0%      0.0%
 flops    13 x    13 x    73         556611093792       0.0%    100.0%      0.0%
 flops    13 x    13 x    64        1043403079680       0.0%    100.0%      0.0%
 flops    13 x    13 x    96        3130209239040       0.0%    100.0%      0.0%
 flops inhomo. stacks                           0       0.0%      0.0%      0.0%
 flops total                         5.468273E+12       0.0%    100.0%      0.0%
 flops max/rank                    361.179103E+09       0.0%    100.0%      0.0%
 matmuls inhomo. stacks                         0       0.0%      0.0%      0.0%
 matmuls total                          202106184       0.0%    100.0%      0.0%
 number of processed stacks                837312       0.0%    100.0%      0.0%
 average stack size                                     0.0     241.4       0.0
 marketing flops                     8.653051E+12
 -------------------------------------------------------------------------------
 # multiplications                           8722
 max memory usage/rank               1.752080E+09
 # max total images/rank                        1
 # max 3D layers                                1
 # MPI messages exchanged                  837312
 MPI messages size (bytes):
  total size                       197.484954E+09
  min size                          23.296000E+03
  max size                         286.464000E+03
  average size                     235.855875E+03
 MPI breakdown and total messages size (bytes):
             size <=      128                   0                        0
       128 < size <=     8192                   0                        0
      8192 < size <=    32768                5808                144648240
     32768 < size <=   131072               17424               1633674240
    131072 < size <=  4194304              814080             195715608480
   4194304 < size <= 16777216                   0                        0
  16777216 < size                               0                        0
 -------------------------------------------------------------------------------

 MEMORY| Estimated peak process memory [MiB]                                1671

 -------------------------------------------------------------------------------
 -                                                                             -
 -                         MESSAGE PASSING PERFORMANCE                         -
 -                                                                             -
 -------------------------------------------------------------------------------

 ROUTINE             CALLS      AVE VOLUME [Bytes]
 MP_Group             8744
 MP_Bcast             4479                 132278.
 MP_Allreduce       135386                     93.
 MP_Sync                16
 MP_Alltoall        353337               10365176.
 MP_SendRecv        104664                 746496.
 MP_ISendRecv       523500                 251100.
 MP_Wait           1797275
 MP_ISend           872512                 947388.
 MP_IRecv           872512                 945542.
 MP_Recv              4302                 374411.
 MP_Memory          679832
 -------------------------------------------------------------------------------


 -------------------------------------------------------------------------------
 -                                                                             -
 -                           R E F E R E N C E S                               -
 -                                                                             -
 -------------------------------------------------------------------------------
 
 CP2K version 7.0 (Development Version), the CP2K developers group (2018).
 CP2K is freely available from https://www.cp2k.org/ .

 Schuett, Ole; Messmer, Peter; Hutter, Juerg; VandeVondele, Joost. 
 Electronic Structure Calculations on Graphics Processing Units, John Wiley & Sons, Ltd, 173-190 (2016). 
 GPU-Accelerated Sparse Matrix-Matrix Multiplication for Linear Scaling Density Functional Theory.
 http://dx.doi.org/10.1002/9781118670712.ch8


 Borstnik, U; VandeVondele, J; Weber, V; Hutter, J. 
 PARALLEL COMPUTING, 40 (5-6), 47-58 (2014). 
 Sparse matrix multiplication: The distributed block-compressed sparse
 row library.
 http://dx.doi.org/10.1016/j.parco.2014.03.012


 Hutter, J; Iannuzzi, M; Schiffmann, F; VandeVondele, J. 
 WILEY INTERDISCIPLINARY REVIEWS-COMPUTATIONAL MOLECULAR SCIENCE, 4 (1), 15-25 (2014). 
 CP2K: atomistic simulations of condensed matter systems.
 http://dx.doi.org/10.1002/wcms.1159


 Grimme, S; Ehrlich, S; Goerigk, L. 
 JOURNAL OF COMPUTATIONAL CHEMISTRY, 32, 1456 (2011). 
 Effect of the damping function in dispersion corrected density functional theory.
 http://dx.doi.org/10.1002/jcc.21759


 Grimme, S; Antony, J; Ehrlich, S; Krieg, H. 
 JOURNAL OF CHEMICAL PHYSICS, 132 (15), 154104 (2010). 
 A consistent and accurate ab initio parametrization of density
 functional dispersion correction (DFT-D) for the 94 elements H-Pu.
 http://dx.doi.org/10.1063/1.3382344


 VandeVondele, J; Hutter, J. 
 JOURNAL OF CHEMICAL PHYSICS, 127 (11), 114105 (2007). 
 Gaussian basis sets for accurate calculations on molecular systems in
 gas and condensed phases.
 http://dx.doi.org/10.1063/1.2770708


 Krack, M. 
 THEORETICAL CHEMISTRY ACCOUNTS, 114 (1-3), 145-152 (2005). 
 Pseudopotentials for H to Kr optimized for gradient-corrected
 exchange-correlation functionals.
 http://dx.doi.org/10.1007/s00214-005-0655-y


 VandeVondele, J; Krack, M; Mohamed, F; Parrinello, M; Chassaing, T;
 Hutter, J. COMPUTER PHYSICS COMMUNICATIONS, 167 (2), 103-128 (2005). 
 QUICKSTEP: Fast and accurate density functional calculations using a
 mixed Gaussian and plane waves approach.
 http://dx.doi.org/10.1016/j.cpc.2004.12.014


 Frigo, M; Johnson, SG. 
 PROCEEDINGS OF THE IEEE, 93 (2), 216-231 (2005). 
 The design and implementation of FFTW3.
 http://dx.doi.org/10.1109/JPROC.2004.840301


 Hartwigsen, C; Goedecker, S; Hutter, J. 
 PHYSICAL REVIEW B, 58 (7), 3641-3662 (1998). 
 Relativistic separable dual-space Gaussian pseudopotentials from H to Rn.
 http://dx.doi.org/10.1103/PhysRevB.58.3641


 Lippert, G; Hutter, J; Parrinello, M. 
 MOLECULAR PHYSICS, 92 (3), 477-487 (1997). 
 A hybrid Gaussian and plane wave density functional scheme.
 http://dx.doi.org/10.1080/002689797170220


 Goedecker, S; Teter, M; Hutter, J. 
 PHYSICAL REVIEW B, 54 (3), 1703-1710 (1996). 
 Separable dual-space Gaussian pseudopotentials.
 http://dx.doi.org/10.1103/PhysRevB.54.1703


 BECKE, AD. PHYSICAL REVIEW A, 38 (6), 3098-3100 (1988). 
 DENSITY-FUNCTIONAL EXCHANGE-ENERGY APPROXIMATION WITH CORRECT
 ASYMPTOTIC-BEHAVIOR.
 http://dx.doi.org/10.1103/PhysRevA.38.3098


 LEE, CT; YANG, WT; PARR, RG. 
 PHYSICAL REVIEW B, 37 (2), 785-789 (1988). 
 DEVELOPMENT OF THE COLLE-SALVETTI CORRELATION-ENERGY FORMULA INTO A
 FUNCTIONAL OF THE ELECTRON-DENSITY.
 http://dx.doi.org/10.1103/PhysRevB.37.785


 -------------------------------------------------------------------------------
 -                                                                             -
 -                                T I M I N G                                  -
 -                                                                             -
 -------------------------------------------------------------------------------
 SUBROUTINE                       CALLS  ASD         SELF TIME        TOTAL TIME
                                MAXIMUM       AVERAGE  MAXIMUM  AVERAGE  MAXIMUM
 CP2K                                 1  1.0     0.04     0.08 29859.57 29859.76
 qs_energies                          3  2.0     0.00     0.00 29857.11 29857.29
 scf_env_do_scf                       3  3.0     0.02     0.03 29850.77 29851.12
 scf_env_do_scf_inner_loop         4361  4.0     0.24     0.87 29850.74 29851.11
 qs_ks_update_qs_env               4361  5.0     0.04     0.05 12477.14 12477.53
 rebuild_ks_matrix                 4361  6.0     0.01     0.01 12473.12 12473.44
 qs_ks_build_kohn_sham_matrix      4361  7.0     0.52     0.61 12473.10 12473.42
 qs_rho_update_rho                 4364  5.0     0.04     0.05  8829.35  8831.03
 calculate_rho_elec                8728  6.0  3822.13  4329.25  8829.31  8830.99
 sum_up_and_integrate              4361  8.0    44.14    46.30  7443.71  7444.08
 pw_transfer                     100312  9.0     7.29     8.91  7348.22  7437.40
 integrate_v_rspace                8722  9.0  3677.99  4134.38  7399.56  7401.79
 fft_wrap_pw1pw2                  91590 10.0     0.87     1.03  7251.56  7340.95
 fft_wrap_pw1pw2_150              39240 10.2   587.16   604.06  6610.97  6694.61
 gspace_mixing                     4349  5.0    46.08    47.89  6323.74  6323.78
 density_rs2pw                     8728  7.0     0.43     0.48  4761.01  5554.36
 fft3d_ps                         91590 12.0  3194.10  3297.13  5174.35  5264.86
 broyden_mixing                    4349  6.0  4301.63  4448.72  4426.38  4507.34
 qs_vxc_create                     4361  8.0     0.10     0.12  3869.29  3888.53
 xc_vxc_pw_create                  4361  9.0   331.13   354.71  3869.20  3888.42
 rs_pw_transfer                   69803  9.5     1.00     1.12  2697.37  3523.16
 potential_pw2rs                   8722 10.0     4.37     5.10  3239.72  3242.29
 xc_rho_set_and_dset_create        4361 10.0   349.55   365.24  2570.49  2627.99
 qs_scf_new_mos                    4361  5.0     0.08     0.09  2212.97  2214.31
 eigensolver                       8722  6.0     0.61     0.81  2090.13  2090.50
 rs_pw_transfer_RS2PW_150          8731  9.0   385.00   417.11  1025.03  1827.79
 mp_waitany                      732960 11.5   924.04  1817.20   924.04  1817.20
 cp_fm_syevd                       8722  7.0     0.06     0.06  1666.31  1666.86
 cp_fm_syevd_base                  8722  8.0  1666.24  1666.80  1666.24  1666.80
 pw_nn_compose_r                  52332 10.5  1227.09  1269.18  1434.05  1571.79
 xc_functional_eval                8722 11.0     0.06     0.08  1306.46  1364.07
 rs_distribute_matrix             17450  8.5    19.04    25.46   518.76  1268.38
 mp_alltoall_d11v                122135  9.3   510.93  1265.16   510.93  1265.16
 x_to_yz                          47953 13.3   756.43   789.99  1159.45  1192.34
 rs_pw_transfer_PW2RS_150          8722 12.0   671.11   678.83   976.76   987.83
 lyp_lsd_eval                      4361 12.0   947.00   985.01   947.00   985.01
 yz_to_x                          43637 12.6   486.94   511.85   819.42   871.48
 mp_alltoall_z22v                 91590 14.0   735.49   838.06   735.49   838.06
 pw_scatter_p                     47953 12.3   741.22   749.90   741.22   749.90
 pw_gather_p                      43637 11.6   699.05   710.37   699.05   710.37
 -------------------------------------------------------------------------------

 The number of warnings for this run is : 3
 
 -------------------------------------------------------------------------------
  **** **** ******  **  PROGRAM ENDED AT                 2024-07-25 20:07:24.323
 ***** ** ***  *** **   PROGRAM RAN ON                                sebnode103
 **    ****   ******    PROGRAM RAN BY                                    luehrs
 ***** **    ** ** **   PROGRAM PROCESS ID                                364215
  **** **  *******  **  PROGRAM STOPPED IN /home/luehrs/PhD/Sodium_batteries/Sod
                                           ium-graphene-edge/Zig_zag_2/No_hydrog
                                           en
