 DBCSR| Multiplication driver                                               XSMM
 DBCSR| Multrec recursion limit                                              512
 DBCSR| Multiplication stack size                                           1000
 DBCSR| Maximum elements for images                                    UNLIMITED
 DBCSR| Multiplicative factor virtual images                                   1
 DBCSR| Multiplication size stacks                                             3
 DBCSR| Number of 3D layers                                               SINGLE
 DBCSR| Use MPI memory allocation                                              T
 DBCSR| Use RMA algorithm                                                      F
 DBCSR| Use Communication thread                                               T
 DBCSR| Communication thread load                                             87


  **** **** ******  **  PROGRAM STARTED AT               2024-07-24 15:13:25.899
 ***** ** ***  *** **   PROGRAM STARTED ON                            sebnode107
 **    ****   ******    PROGRAM STARTED BY                                luehrs
 ***** **    ** ** **   PROGRAM PROCESS ID                                343423
  **** **  *******  **  PROGRAM STARTED IN /home/luehrs/PhD/Sodium_batteries/Sod
                                           ium-graphene-edge/Zig_zag_2/No_hydrog
                                           en

 CP2K| version string:                    CP2K version 7.0 (Development Version)
 CP2K| source code revision number:                                             
 CP2K| cp2kflags: libint fftw3 libxc parallel mpi3 scalapack xsmm libderiv_max_a
 CP2K|            m1=8 libint_max_am=9 max_contr=4
 CP2K| is freely available from                            https://www.cp2k.org/
 CP2K| Program compiled at                         Sun Jun 24 14:37:16 CEST 2018
 CP2K| Program compiled on                                            sebstorage
 CP2K| Program compiled for                                Linux-x86-64-gfortran
 CP2K| Data directory path    /home/brehm/Software_Batchnode/2018/Source/cp2k_18
 CP2K| Input file name                         graphene_zig_zag_BSSE-1_2.restart

 GLOBAL| Force Environment number                                              1
 GLOBAL| Basis set file name                                      ./BASIS_MOLOPT
 GLOBAL| Potential file name                                    ./GTH_POTENTIALS
 GLOBAL| MM Potential file name                                     MM_POTENTIAL
 GLOBAL| Coordinate file name           graphene_no_hydrogen_zig-zag_relaxed.xyz
 GLOBAL| Method name                                                        CP2K
 GLOBAL| Project name                                      graphene_zig_zag_BSSE
 GLOBAL| Preferred FFT library                                             FFTW3
 GLOBAL| Preferred diagonalization lib.                                       SL
 GLOBAL| Run type                                                           BSSE
 GLOBAL| All-to-all communication in single precision                          F
 GLOBAL| FFTs using library dependent lengths                                  F
 GLOBAL| Global print level                                                  LOW
 GLOBAL| Total number of message passing processes                            16
 GLOBAL| Number of threads for this process                                    1
 GLOBAL| This output is from process                                           0
 GLOBAL| CPU model name :  Intel(R) Xeon(R) CPU E5-2620 v4 @ 2.10GHz

 MEMORY| system memory details [Kb]
 MEMORY|                        rank 0           min           max       average
 MEMORY| MemTotal             65835504      65835504      65835504      65835504
 MEMORY| MemFree              63492012      63492012      63492012      63492012
 MEMORY| Buffers                113380        113380        113380        113380
 MEMORY| Cached                 270988        270988        270988        270988
 MEMORY| Slab                   433812        433812        433812        433812
 MEMORY| SReclaimable           283680        283680        283680        283680
 MEMORY| MemLikelyFree        64160060      64160060      64160060      64160060


 GENERATE|  Preliminary Number of Bonds generated:                             0
 GENERATE|  Achieved consistency in connectivity generation.

 *******************************************************************************
 *******************************************************************************
 **                                                                           **
 **     #####                         ##              ##                      **
 **    ##   ##            ##          ##              ##                      **
 **   ##     ##                       ##            ######                    **
 **   ##     ##  ##   ##  ##   #####  ##  ##   ####   ##    #####    #####    **
 **   ##     ##  ##   ##  ##  ##      ## ##   ##      ##   ##   ##  ##   ##   **
 **   ##  ## ##  ##   ##  ##  ##      ####     ###    ##   ######   ######    **
 **    ##  ###   ##   ##  ##  ##      ## ##      ##   ##   ##       ##        **
 **     #######   #####   ##   #####  ##  ##  ####    ##    #####   ##        **
 **           ##                                                    ##        **
 **                                                                           **
 **                                                ... make the atoms dance   **
 **                                                                           **
 **            Copyright (C) by CP2K developers group (2000 - 2018)           **
 **                                                                           **
 *******************************************************************************


 TOTAL NUMBERS AND MAXIMUM NUMBERS

  Total number of            - Atomic kinds:                                   2
                             - Atoms:                                        113
                             - Shell sets:                                   113
                             - Shells:                                       565
                             - Primitive Cartesian functions:                567
                             - Cartesian basis functions:                   1577
                             - Spherical basis functions:                   1465

  Maximum angular momentum of- Orbital basis functions:                        2
                             - Local part of the GTH pseudopotential:          2
                             - Non-local part of the GTH pseudopotential:      1


 SCF PARAMETERS         Density guess:                                    ATOMIC
                        --------------------------------------------------------
                        max_scf:                                             400
                        max_scf_history:                                       0
                        max_diis:                                              4
                        --------------------------------------------------------
                        eps_scf:                                        3.00E-07
                        eps_scf_history:                                0.00E+00
                        eps_diis:                                       1.00E-01
                        eps_eigval:                                     1.00E-05
                        --------------------------------------------------------
                        level_shift [a.u.]:                                 0.00
                        added MOs                                       100  100
                        --------------------------------------------------------
                        Mixing method:                            BROYDEN_MIXING
                                                charge density mixing in g-space
                        --------------------------------------------------------
                        Smear method:                                FERMI_DIRAC
                        Electronic temperature [K]:                        300.0
                        Electronic temperature [a.u.]:                  9.50E-04
                        Accuracy threshold:                             1.00E-10
                        --------------------------------------------------------
                        Outer loop SCF in use 
                        No variables optimised in outer loop
                        eps_scf                                         1.00E-06
                        max_scf                                              100
                        DIIS optimization
                        DIIS buffer length                                     3
                        step_size                                       5.00E-01

 -------------------------------------------------------------------------------
 -                                                                             -
 -  BSSE CALCULATION         FRAGMENT CONF: 11        FRAGMENT SUBCONF: 10     -
 -                           CHARGE =     0           MULTIPLICITY =     0     -
 -                                                                             -
 -                 ATOM INDEX                              ATOM NAME           -
 -                 ----------                              ---------           -
 -                      1                                   C                  -
 -                      2                                   C                  -
 -                      3                                   C                  -
 -                      4                                   C                  -
 -                      5                                   C                  -
 -                      6                                   C                  -
 -                      7                                   C                  -
 -                      8                                   C                  -
 -                      9                                   C                  -
 -                     10                                   C                  -
 -                     11                                   C                  -
 -                     12                                   C                  -
 -                     13                                   C                  -
 -                     14                                   C                  -
 -                     15                                   C                  -
 -                     16                                   C                  -
 -                     17                                   C                  -
 -                     18                                   C                  -
 -                     19                                   C                  -
 -                     20                                   C                  -
 -                     21                                   C                  -
 -                     22                                   C                  -
 -                     23                                   C                  -
 -                     24                                   C                  -
 -                     25                                   C                  -
 -                     26                                   C                  -
 -                     27                                   C                  -
 -                     28                                   C                  -
 -                     29                                   C                  -
 -                     30                                   C                  -
 -                     31                                   C                  -
 -                     32                                   C                  -
 -                     33                                   C                  -
 -                     34                                   C                  -
 -                     35                                   C                  -
 -                     36                                   C                  -
 -                     37                                   C                  -
 -                     38                                   C                  -
 -                     39                                   C                  -
 -                     40                                   C                  -
 -                     41                                   C                  -
 -                     42                                   C                  -
 -                     43                                   C                  -
 -                     44                                   C                  -
 -                     45                                   C                  -
 -                     46                                   C                  -
 -                     47                                   C                  -
 -                     48                                   C                  -
 -                     49                                   C                  -
 -                     50                                   C                  -
 -                     51                                   C                  -
 -                     52                                   C                  -
 -                     53                                   C                  -
 -                     54                                   C                  -
 -                     55                                   C                  -
 -                     56                                   C                  -
 -                     57                                   C                  -
 -                     58                                   C                  -
 -                     59                                   C                  -
 -                     60                                   C                  -
 -                     61                                   C                  -
 -                     62                                   C                  -
 -                     63                                   C                  -
 -                     64                                   C                  -
 -                     65                                   C                  -
 -                     66                                   C                  -
 -                     67                                   C                  -
 -                     68                                   C                  -
 -                     69                                   C                  -
 -                     70                                   C                  -
 -                     71                                   C                  -
 -                     72                                   C                  -
 -                     73                                   C                  -
 -                     74                                   C                  -
 -                     75                                   C                  -
 -                     76                                   C                  -
 -                     77                                   C                  -
 -                     78                                   C                  -
 -                     79                                   C                  -
 -                     80                                   C                  -
 -                     81                                   C                  -
 -                     82                                   C                  -
 -                     83                                   C                  -
 -                     84                                   C                  -
 -                     85                                   C                  -
 -                     86                                   C                  -
 -                     87                                   C                  -
 -                     88                                   C                  -
 -                     89                                   C                  -
 -                     90                                   C                  -
 -                     91                                   C                  -
 -                     92                                   C                  -
 -                     93                                   C                  -
 -                     94                                   C                  -
 -                     95                                   C                  -
 -                     96                                   C                  -
 -                     97                                   C                  -
 -                     98                                   C                  -
 -                     99                                   C                  -
 -                    100                                   C                  -
 -                    101                                   C                  -
 -                    102                                   C                  -
 -                    103                                   C                  -
 -                    104                                   C                  -
 -                    105                                   C                  -
 -                    106                                   C                  -
 -                    107                                   C                  -
 -                    108                                   C                  -
 -                    109                                   C                  -
 -                    110                                   C                  -
 -                    111                                   C                  -
 -                    112                                   C                  -
 -                    113                                   Na_ghost           -
 -------------------------------------------------------------------------------

 *******************************************************************************
 *******************************************************************************
 **                                                                           **
 **     #####                         ##              ##                      **
 **    ##   ##            ##          ##              ##                      **
 **   ##     ##                       ##            ######                    **
 **   ##     ##  ##   ##  ##   #####  ##  ##   ####   ##    #####    #####    **
 **   ##     ##  ##   ##  ##  ##      ## ##   ##      ##   ##   ##  ##   ##   **
 **   ##  ## ##  ##   ##  ##  ##      ####     ###    ##   ######   ######    **
 **    ##  ###   ##   ##  ##  ##      ## ##      ##   ##   ##       ##        **
 **     #######   #####   ##   #####  ##  ##  ####    ##    #####   ##        **
 **           ##                                                    ##        **
 **                                                                           **
 **                                                ... make the atoms dance   **
 **                                                                           **
 **            Copyright (C) by CP2K developers group (2000 - 2018)           **
 **                                                                           **
 *******************************************************************************


 TOTAL NUMBERS AND MAXIMUM NUMBERS

  Total number of            - Atomic kinds:                                   2
                             - Atoms:                                        113
                             - Shell sets:                                   113
                             - Shells:                                       565
                             - Primitive Cartesian functions:                567
                             - Cartesian basis functions:                   1577
                             - Spherical basis functions:                   1465

  Maximum angular momentum of- Orbital basis functions:                        2
                             - Local part of the GTH pseudopotential:          2
                             - Non-local part of the GTH pseudopotential:      0


 SCF PARAMETERS         Density guess:                                    ATOMIC
                        --------------------------------------------------------
                        max_scf:                                             400
                        max_scf_history:                                       0
                        max_diis:                                              4
                        --------------------------------------------------------
                        eps_scf:                                        3.00E-07
                        eps_scf_history:                                0.00E+00
                        eps_diis:                                       1.00E-01
                        eps_eigval:                                     1.00E-05
                        --------------------------------------------------------
                        level_shift [a.u.]:                                 0.00
                        added MOs                                       100  100
                        --------------------------------------------------------
                        Mixing method:                            BROYDEN_MIXING
                                                charge density mixing in g-space
                        --------------------------------------------------------
                        Smear method:                                FERMI_DIRAC
                        Electronic temperature [K]:                        300.0
                        Electronic temperature [a.u.]:                  9.50E-04
                        Accuracy threshold:                             1.00E-10
                        --------------------------------------------------------
                        Outer loop SCF in use 
                        No variables optimised in outer loop
                        eps_scf                                         1.00E-06
                        max_scf                                              100
                        DIIS optimization
                        DIIS buffer length                                     3
                        step_size                                       5.00E-01

 Spin 1

 Number of electrons:                                                        224
 Number of occupied orbitals:                                                224
 Number of molecular orbitals:                                               324

 Spin 2

 Number of electrons:                                                        224
 Number of occupied orbitals:                                                224
 Number of molecular orbitals:                                               324

 Number of orbital functions:                                               1465
 Number of independent orbital functions:                                   1465

 Extrapolation method: initial_guess


 SCF WAVEFUNCTION OPTIMIZATION

  Step     Update method      Time    Convergence         Total energy    Change
  ------------------------------------------------------------------------------
     1 NoMix/Diag. 0.10E+00    3.4     0.45132263      -627.8926975268 -6.28E+02
     2 Broy./Diag. 0.10E+00    5.9     0.10405285      -603.5208882374  2.44E+01
     3 Broy./Diag. 0.10E+00    6.0     0.16288420      -611.3908776668 -7.87E+00
     4 Broy./Diag. 0.10E+00    6.1     7.57122463      -625.6319273883 -1.42E+01
     5 Broy./Diag. 0.10E+00    6.2     7.57118043      -607.0132277974  1.86E+01
     6 Broy./Diag. 0.10E+00    6.3     0.43197638      -629.9129809120 -2.29E+01
     7 Broy./Diag. 0.10E+00    6.3     0.11674761      -630.8959368566 -9.83E-01
     8 Broy./Diag. 0.10E+00    6.5     7.63678713      -631.3290377312 -4.33E-01
     9 Broy./Diag. 0.10E+00    6.6     7.64314628      -608.9383212387  2.24E+01
    10 Broy./Diag. 0.10E+00    6.8     7.58981776      -631.3826176147 -2.24E+01
    11 Broy./Diag. 0.10E+00    6.8     7.58984323      -540.3092330441  9.11E+01
    12 Broy./Diag. 0.10E+00    6.8     0.37965528      -630.5196211915 -9.02E+01
    13 Broy./Diag. 0.10E+00    6.8     7.60178597      -631.8610666446 -1.34E+00
    14 Broy./Diag. 0.10E+00    6.8     7.60178387      -562.7017645338  6.92E+01
    15 Broy./Diag. 0.10E+00    6.8     7.65193085      -631.9687317162 -6.93E+01
    16 Broy./Diag. 0.10E+00    6.8     7.65192756      -585.9348480496  4.60E+01
    17 Broy./Diag. 0.10E+00    6.8     0.14504530      -632.0974713465 -4.62E+01
    18 Broy./Diag. 0.10E+00    6.8     0.12261048      -631.5336481722  5.64E-01
    19 Broy./Diag. 0.10E+00    6.8     0.06055160      -632.0350584329 -5.01E-01
    20 Broy./Diag. 0.10E+00    6.8     0.04084164      -632.0420723299 -7.01E-03
    21 Broy./Diag. 0.10E+00    6.8     7.65292447      -632.0051743760  3.69E-02
    22 Broy./Diag. 0.10E+00    6.8     7.65292181      -608.7956544992  2.32E+01
    23 Broy./Diag. 0.10E+00    6.8     0.02020999      -632.0207044655 -2.32E+01
    24 Broy./Diag. 0.10E+00    6.8     0.01023016      -632.0827196790 -6.20E-02
    25 Broy./Diag. 0.10E+00    6.8     0.01192207      -632.1093768136 -2.67E-02
    26 Broy./Diag. 0.10E+00    6.8     0.01880239      -632.1564716408 -4.71E-02
    27 Broy./Diag. 0.10E+00    6.8     0.00491928      -632.1757251433 -1.93E-02
    28 Broy./Diag. 0.10E+00    6.8     0.01021077      -632.2356001144 -5.99E-02
    29 Broy./Diag. 0.10E+00    6.8     0.00641419      -632.3196984856 -8.41E-02
    30 Broy./Diag. 0.10E+00    6.8     0.00227680      -632.3945557995 -7.49E-02
    31 Broy./Diag. 0.10E+00    6.8     0.01436552      -632.4183478464 -2.38E-02
    32 Broy./Diag. 0.10E+00    6.8     0.00437122      -632.4363842242 -1.80E-02
    33 Broy./Diag. 0.10E+00    6.8     0.00558172      -632.4558176421 -1.94E-02
    34 Broy./Diag. 0.10E+00    6.8     0.01025951      -632.4981428639 -4.23E-02
    35 Broy./Diag. 0.10E+00    6.8     0.00629731      -632.5177631128 -1.96E-02
    36 Broy./Diag. 0.10E+00    6.8     0.00361313      -632.5264269747 -8.66E-03
    37 Broy./Diag. 0.10E+00    6.8     0.00341332      -632.5316783564 -5.25E-03
    38 Broy./Diag. 0.10E+00    6.8     0.00833647      -632.5292367058  2.44E-03
    39 Broy./Diag. 0.10E+00    6.8     0.01210445      -632.5337128244 -4.48E-03
    40 Broy./Diag. 0.10E+00    6.8     0.00579750      -632.5334584252  2.54E-04
    41 Broy./Diag. 0.10E+00    6.8     0.00262324      -632.5312534728  2.20E-03
    42 Broy./Diag. 0.10E+00    6.8     0.00500188      -632.5222519424  9.00E-03
    43 Broy./Diag. 0.10E+00    6.8     0.00995544      -632.5122635134  9.99E-03
    44 Broy./Diag. 0.10E+00    6.8     0.00370695      -632.5174472300 -5.18E-03
    45 Broy./Diag. 0.10E+00    6.8     0.00557119      -632.5196112396 -2.16E-03
    46 Broy./Diag. 0.10E+00    6.8     0.00812729      -632.5213860496 -1.77E-03
    47 Broy./Diag. 0.10E+00    6.8     0.00553543      -632.5235810017 -2.19E-03
    48 Broy./Diag. 0.10E+00    6.8     0.00276065      -632.5280831861 -4.50E-03
    49 Broy./Diag. 0.10E+00    6.8     0.00229407      -632.5205091897  7.57E-03
    50 Broy./Diag. 0.10E+00    6.8     0.00297667      -632.5256768288 -5.17E-03
    51 Broy./Diag. 0.10E+00    6.8     0.00322856      -632.5272018196 -1.52E-03
    52 Broy./Diag. 0.10E+00    6.8     0.00093965      -632.5301292525 -2.93E-03
    53 Broy./Diag. 0.10E+00    6.8     0.00162322      -632.5377212153 -7.59E-03
    54 Broy./Diag. 0.10E+00    6.8     0.00122986      -632.5427749683 -5.05E-03
    55 Broy./Diag. 0.10E+00    6.8     0.00111592      -632.5496746798 -6.90E-03
    56 Broy./Diag. 0.10E+00    6.8     0.00046751      -632.5536689670 -3.99E-03
    57 Broy./Diag. 0.10E+00    6.8     0.00093803      -632.5557938286 -2.12E-03
    58 Broy./Diag. 0.10E+00    6.8     0.00063532      -632.5570994540 -1.31E-03
    59 Broy./Diag. 0.10E+00    6.8     0.00092033      -632.5594257974 -2.33E-03
    60 Broy./Diag. 0.10E+00    6.8     0.00120381      -632.5621727377 -2.75E-03
    61 Broy./Diag. 0.10E+00    6.8     0.00051414      -632.5647937292 -2.62E-03
    62 Broy./Diag. 0.10E+00    6.8     0.00027979      -632.5653119716 -5.18E-04
    63 Broy./Diag. 0.10E+00    6.8     0.00071457      -632.5656172015 -3.05E-04
    64 Broy./Diag. 0.10E+00    6.8     0.00039758      -632.5660760381 -4.59E-04
    65 Broy./Diag. 0.10E+00    6.8     0.00054237      -632.5669588267 -8.83E-04
    66 Broy./Diag. 0.10E+00    6.8     0.00016181      -632.5680166226 -1.06E-03
    67 Broy./Diag. 0.10E+00    6.8     0.00010699      -632.5689586734 -9.42E-04
    68 Broy./Diag. 0.10E+00    6.8     0.00013731      -632.5690875465 -1.29E-04
    69 Broy./Diag. 0.10E+00    6.8     0.00013533      -632.5687818970  3.06E-04
    70 Broy./Diag. 0.10E+00    6.8     0.00017681      -632.5684801650  3.02E-04
    71 Broy./Diag. 0.10E+00    6.8     0.00008568      -632.5680414763  4.39E-04
    72 Broy./Diag. 0.10E+00    6.8     0.00010809      -632.5677424870  2.99E-04
    73 Broy./Diag. 0.10E+00    6.8     0.00009184      -632.5675394701  2.03E-04
    74 Broy./Diag. 0.10E+00    6.8     0.00006163      -632.5677392365 -2.00E-04
    75 Broy./Diag. 0.10E+00    6.8     0.00007673      -632.5680131469 -2.74E-04
    76 Broy./Diag. 0.10E+00    6.8     0.00004750      -632.5685313955 -5.18E-04
    77 Broy./Diag. 0.10E+00    6.8     0.00002689      -632.5688105141 -2.79E-04
    78 Broy./Diag. 0.10E+00    6.8     0.00001597      -632.5689496734 -1.39E-04
    79 Broy./Diag. 0.10E+00    6.8     0.00002824      -632.5690558271 -1.06E-04
    80 Broy./Diag. 0.10E+00    6.8     0.00001310      -632.5693187121 -2.63E-04
    81 Broy./Diag. 0.10E+00    6.8     0.00001044      -632.5698199326 -5.01E-04
    82 Broy./Diag. 0.10E+00    6.8     0.00001735      -632.5701087466 -2.89E-04
    83 Broy./Diag. 0.10E+00    6.8     0.00001903      -632.5703240418 -2.15E-04
    84 Broy./Diag. 0.10E+00    6.8     0.00001723      -632.5704608473 -1.37E-04
    85 Broy./Diag. 0.10E+00    6.8     0.00001229      -632.5705062627 -4.54E-05
    86 Broy./Diag. 0.10E+00    6.8     0.00000913      -632.5705047509  1.51E-06
    87 Broy./Diag. 0.10E+00    6.8     0.00000634      -632.5705193348 -1.46E-05
    88 Broy./Diag. 0.10E+00    6.8     0.00000417      -632.5705460218 -2.67E-05
    89 Broy./Diag. 0.10E+00    6.8     0.00000659      -632.5705792597 -3.32E-05
    90 Broy./Diag. 0.10E+00    6.8     0.00000671      -632.5706034323 -2.42E-05
    91 Broy./Diag. 0.10E+00    6.8     0.00000390      -632.5706159309 -1.25E-05
    92 Broy./Diag. 0.10E+00    6.8     0.00000600      -632.5706293313 -1.34E-05
    93 Broy./Diag. 0.10E+00    6.8     0.00000607      -632.5706377907 -8.46E-06
    94 Broy./Diag. 0.10E+00    6.8     0.00000733      -632.5706589325 -2.11E-05
    95 Broy./Diag. 0.10E+00    6.8     0.00000532      -632.5706949176 -3.60E-05
    96 Broy./Diag. 0.10E+00    6.8     0.00000531      -632.5707297216 -3.48E-05
    97 Broy./Diag. 0.10E+00    6.8     0.00000557      -632.5707570967 -2.74E-05
    98 Broy./Diag. 0.10E+00    6.8     0.00000282      -632.5707845278 -2.74E-05
    99 Broy./Diag. 0.10E+00    6.8     0.00000583      -632.5708192603 -3.47E-05
   100 Broy./Diag. 0.10E+00    6.8     0.00000618      -632.5708494118 -3.02E-05
   101 Broy./Diag. 0.10E+00    6.8     0.00000475      -632.5708672902 -1.79E-05
   102 Broy./Diag. 0.10E+00    6.8     0.00000296      -632.5708716595 -4.37E-06
   103 Broy./Diag. 0.10E+00    6.8     0.00000475      -632.5708803168 -8.66E-06
   104 Broy./Diag. 0.10E+00    6.8     0.00000439      -632.5708894380 -9.12E-06
   105 Broy./Diag. 0.10E+00    6.8     0.00000425      -632.5708907611 -1.32E-06
   106 Broy./Diag. 0.10E+00    6.8     0.00000269      -632.5708971923 -6.43E-06
   107 Broy./Diag. 0.10E+00    6.8     0.00000498      -632.5709066271 -9.43E-06
   108 Broy./Diag. 0.10E+00    6.8     0.00001018      -632.5709053272  1.30E-06
   109 Broy./Diag. 0.10E+00    6.8     0.00000933      -632.5709108416 -5.51E-06
   110 Broy./Diag. 0.10E+00    6.8     0.00000168      -632.5709092704  1.57E-06
   111 Broy./Diag. 0.10E+00    6.8     0.00000320      -632.5709088749  3.95E-07
   112 Broy./Diag. 0.10E+00    6.8     0.00000319      -632.5709060211  2.85E-06
   113 Broy./Diag. 0.10E+00    6.8     0.00000693      -632.5709045622  1.46E-06
   114 Broy./Diag. 0.10E+00    6.8     0.00000279      -632.5709024383  2.12E-06
   115 Broy./Diag. 0.10E+00    6.8     0.00000479      -632.5709000199  2.42E-06
   116 Broy./Diag. 0.10E+00    6.8     0.00000168      -632.5708966036  3.42E-06
   117 Broy./Diag. 0.10E+00    6.8     0.00000406      -632.5708930369  3.57E-06
   118 Broy./Diag. 0.10E+00    6.8     0.00000273      -632.5708911354  1.90E-06
   119 Broy./Diag. 0.10E+00    6.8     0.00000298      -632.5708868230  4.31E-06
   120 Broy./Diag. 0.10E+00    6.8     0.00000393      -632.5708848941  1.93E-06
   121 Broy./Diag. 0.10E+00    6.8     0.00000270      -632.5708844238  4.70E-07
   122 Broy./Diag. 0.10E+00    6.8     0.00000324      -632.5708820707  2.35E-06
   123 Broy./Diag. 0.10E+00    6.8     0.00000235      -632.5708796148  2.46E-06
   124 Broy./Diag. 0.10E+00    6.8     0.00000367      -632.5708799722 -3.57E-07
   125 Broy./Diag. 0.10E+00    6.8     0.00000275      -632.5708784629  1.51E-06
   126 Broy./Diag. 0.10E+00    6.8     0.00000511      -632.5708760758  2.39E-06
   127 Broy./Diag. 0.10E+00    6.8     0.00000403      -632.5708753696  7.06E-07
   128 Broy./Diag. 0.10E+00    6.8     0.00000236      -632.5708731795  2.19E-06
   129 Broy./Diag. 0.10E+00    6.8     0.00000229      -632.5708717311  1.45E-06
   130 Broy./Diag. 0.10E+00    6.8     0.00000164      -632.5708685357  3.20E-06
   131 Broy./Diag. 0.10E+00    6.8     0.00000276      -632.5708669388  1.60E-06
   132 Broy./Diag. 0.10E+00    6.8     0.00000331      -632.5708649138  2.02E-06
   133 Broy./Diag. 0.10E+00    6.8     0.00000223      -632.5708646016  3.12E-07
   134 Broy./Diag. 0.10E+00    6.8     0.00000277      -632.5708640803  5.21E-07
   135 Broy./Diag. 0.10E+00    6.8     0.00000407      -632.5708649876 -9.07E-07
   136 Broy./Diag. 0.10E+00    6.8     0.00000252      -632.5708663517 -1.36E-06
   137 Broy./Diag. 0.10E+00    6.8     0.00000631      -632.5708641695  2.18E-06
   138 Broy./Diag. 0.10E+00    6.8     0.00000396      -632.5708658038 -1.63E-06
   139 Broy./Diag. 0.10E+00    6.8     0.00000380      -632.5708653105  4.93E-07
   140 Broy./Diag. 0.10E+00    6.8     0.00000191      -632.5708647732  5.37E-07
   141 Broy./Diag. 0.10E+00    6.8     0.00000228      -632.5708654236 -6.50E-07
   142 Broy./Diag. 0.10E+00    6.8     0.00000131      -632.5708658208 -3.97E-07
   143 Broy./Diag. 0.10E+00    6.8     0.00000122      -632.5708673865 -1.57E-06
   144 Broy./Diag. 0.10E+00    6.8     0.00000382      -632.5708685295 -1.14E-06
   145 Broy./Diag. 0.10E+00    6.8     0.00000158      -632.5708700388 -1.51E-06
   146 Broy./Diag. 0.10E+00    6.8     0.00000103      -632.5708701574 -1.19E-07
   147 Broy./Diag. 0.10E+00    6.8     0.00000149      -632.5708702710 -1.14E-07
   148 Broy./Diag. 0.10E+00    6.8     0.00000447      -632.5708704032 -1.32E-07
   149 Broy./Diag. 0.10E+00    6.8     0.00000422      -632.5708700236  3.80E-07
   150 Broy./Diag. 0.10E+00    6.8     0.00000232      -632.5708695361  4.87E-07
   151 Broy./Diag. 0.10E+00    6.8     0.00000112      -632.5708702624 -7.26E-07
   152 Broy./Diag. 0.10E+00    6.8     0.00000593      -632.5708699325  3.30E-07
   153 Broy./Diag. 0.10E+00    6.8     0.00000597      -632.5708704367 -5.04E-07
   154 Broy./Diag. 0.10E+00    6.8     0.00000101      -632.5708695470  8.90E-07
   155 Broy./Diag. 0.10E+00    6.8     0.00000218      -632.5708693747  1.72E-07
   156 Broy./Diag. 0.10E+00    6.8     0.00000096      -632.5708692618  1.13E-07
   157 Broy./Diag. 0.10E+00    6.8     0.00000162      -632.5708692673 -5.56E-09
   158 Broy./Diag. 0.10E+00    6.8     0.00000250      -632.5708699005 -6.33E-07
   159 Broy./Diag. 0.10E+00    6.8     0.00000356      -632.5708693943  5.06E-07
   160 Broy./Diag. 0.10E+00    6.8     0.00000178      -632.5708692351  1.59E-07
   161 Broy./Diag. 0.10E+00    6.8     0.00000212      -632.5708694147 -1.80E-07
   162 Broy./Diag. 0.10E+00    6.8     0.00000619      -632.5708694297 -1.50E-08
   163 Broy./Diag. 0.10E+00    6.8     0.00000461      -632.5708700661 -6.36E-07
   164 Broy./Diag. 0.10E+00    6.8     0.00000298      -632.5708699081  1.58E-07
   165 Broy./Diag. 0.10E+00    6.8     0.00000155      -632.5708696249  2.83E-07
   166 Broy./Diag. 0.10E+00    6.8     0.00000196      -632.5708695094  1.15E-07
   167 Broy./Diag. 0.10E+00    6.8     0.00000111      -632.5708692420  2.67E-07
   168 Broy./Diag. 0.10E+00    6.8     0.00000154      -632.5708692818 -3.98E-08
   169 Broy./Diag. 0.10E+00    6.8     0.00000189      -632.5708694203 -1.39E-07
   170 Broy./Diag. 0.10E+00    6.8     0.00000147      -632.5708690904  3.30E-07
   171 Broy./Diag. 0.10E+00    6.8     0.00000150      -632.5708687272  3.63E-07
   172 Broy./Diag. 0.10E+00    6.8     0.00000041      -632.5708687903 -6.31E-08
   173 Broy./Diag. 0.10E+00    6.8     0.00000071      -632.5708687954 -5.08E-09
   174 Broy./Diag. 0.10E+00    6.8     0.00000165      -632.5708686779  1.17E-07
   175 Broy./Diag. 0.10E+00    6.8     0.00000221      -632.5708687843 -1.06E-07
   176 Broy./Diag. 0.10E+00    6.8     0.00000070      -632.5708687861 -1.76E-09
   177 Broy./Diag. 0.10E+00    6.8     0.00000163      -632.5708686597  1.26E-07
   178 Broy./Diag. 0.10E+00    6.8     0.00000169      -632.5708685664  9.33E-08
   179 Broy./Diag. 0.10E+00    6.8     0.00000158      -632.5708685165  4.99E-08
   180 Broy./Diag. 0.10E+00    6.8     0.00000028      -632.5708684095  1.07E-07

  *** SCF run converged in   180 steps ***


  Electronic density on regular grids:       -448.0000000000       -0.0000000000
  Core density on regular grids:              447.9999999996       -0.0000000004
  Total charge density on r-space grids:       -0.0000000004
  Total charge density g-space grids:          -0.0000000004

  Overlap energy of the core charge distribution:               0.00001865557362
  Self energy of the core charge distribution:              -1493.52088779770361
  Core Hamiltonian energy:                                    466.87957981408852
  Hartree energy:                                             585.25660115142307
  Exchange-correlation energy:                               -190.95866168569916
  Dispersion energy:                                           -0.22075422073812
  Electronic entropic energy:                                  -0.00676432695132
  Fermi energy:                                                -0.14672174625390

  Total energy:                                              -632.57086840954798

  outer SCF iter =    1 RMS gradient =   0.28E-06 energy =       -632.5708684095
  outer SCF loop converged in   1 iterations or  180 steps


  Integrated absolute spin density  :                               0.0001470829
  WARNING: S**2 computation does not yet treat fractional occupied orbitals

 *** WARNING in qs_loc_utils.F:1387 :: User requested the calculation of ***
 *** the localized wavefunction but the section LOCALIZE was not         ***
 *** specified. Localization will not be performed!                      ***


 -------------------------------------------------------------------------------
 -                                                                             -
 -  BSSE CALCULATION         FRAGMENT CONF: 11        FRAGMENT SUBCONF: 01     -
 -                           CHARGE =     0           MULTIPLICITY =     0     -
 -                                                                             -
 -                 ATOM INDEX                              ATOM NAME           -
 -                 ----------                              ---------           -
 -                      1                                   C_ghost            -
 -                      2                                   C_ghost            -
 -                      3                                   C_ghost            -
 -                      4                                   C_ghost            -
 -                      5                                   C_ghost            -
 -                      6                                   C_ghost            -
 -                      7                                   C_ghost            -
 -                      8                                   C_ghost            -
 -                      9                                   C_ghost            -
 -                     10                                   C_ghost            -
 -                     11                                   C_ghost            -
 -                     12                                   C_ghost            -
 -                     13                                   C_ghost            -
 -                     14                                   C_ghost            -
 -                     15                                   C_ghost            -
 -                     16                                   C_ghost            -
 -                     17                                   C_ghost            -
 -                     18                                   C_ghost            -
 -                     19                                   C_ghost            -
 -                     20                                   C_ghost            -
 -                     21                                   C_ghost            -
 -                     22                                   C_ghost            -
 -                     23                                   C_ghost            -
 -                     24                                   C_ghost            -
 -                     25                                   C_ghost            -
 -                     26                                   C_ghost            -
 -                     27                                   C_ghost            -
 -                     28                                   C_ghost            -
 -                     29                                   C_ghost            -
 -                     30                                   C_ghost            -
 -                     31                                   C_ghost            -
 -                     32                                   C_ghost            -
 -                     33                                   C_ghost            -
 -                     34                                   C_ghost            -
 -                     35                                   C_ghost            -
 -                     36                                   C_ghost            -
 -                     37                                   C_ghost            -
 -                     38                                   C_ghost            -
 -                     39                                   C_ghost            -
 -                     40                                   C_ghost            -
 -                     41                                   C_ghost            -
 -                     42                                   C_ghost            -
 -                     43                                   C_ghost            -
 -                     44                                   C_ghost            -
 -                     45                                   C_ghost            -
 -                     46                                   C_ghost            -
 -                     47                                   C_ghost            -
 -                     48                                   C_ghost            -
 -                     49                                   C_ghost            -
 -                     50                                   C_ghost            -
 -                     51                                   C_ghost            -
 -                     52                                   C_ghost            -
 -                     53                                   C_ghost            -
 -                     54                                   C_ghost            -
 -                     55                                   C_ghost            -
 -                     56                                   C_ghost            -
 -                     57                                   C_ghost            -
 -                     58                                   C_ghost            -
 -                     59                                   C_ghost            -
 -                     60                                   C_ghost            -
 -                     61                                   C_ghost            -
 -                     62                                   C_ghost            -
 -                     63                                   C_ghost            -
 -                     64                                   C_ghost            -
 -                     65                                   C_ghost            -
 -                     66                                   C_ghost            -
 -                     67                                   C_ghost            -
 -                     68                                   C_ghost            -
 -                     69                                   C_ghost            -
 -                     70                                   C_ghost            -
 -                     71                                   C_ghost            -
 -                     72                                   C_ghost            -
 -                     73                                   C_ghost            -
 -                     74                                   C_ghost            -
 -                     75                                   C_ghost            -
 -                     76                                   C_ghost            -
 -                     77                                   C_ghost            -
 -                     78                                   C_ghost            -
 -                     79                                   C_ghost            -
 -                     80                                   C_ghost            -
 -                     81                                   C_ghost            -
 -                     82                                   C_ghost            -
 -                     83                                   C_ghost            -
 -                     84                                   C_ghost            -
 -                     85                                   C_ghost            -
 -                     86                                   C_ghost            -
 -                     87                                   C_ghost            -
 -                     88                                   C_ghost            -
 -                     89                                   C_ghost            -
 -                     90                                   C_ghost            -
 -                     91                                   C_ghost            -
 -                     92                                   C_ghost            -
 -                     93                                   C_ghost            -
 -                     94                                   C_ghost            -
 -                     95                                   C_ghost            -
 -                     96                                   C_ghost            -
 -                     97                                   C_ghost            -
 -                     98                                   C_ghost            -
 -                     99                                   C_ghost            -
 -                    100                                   C_ghost            -
 -                    101                                   C_ghost            -
 -                    102                                   C_ghost            -
 -                    103                                   C_ghost            -
 -                    104                                   C_ghost            -
 -                    105                                   C_ghost            -
 -                    106                                   C_ghost            -
 -                    107                                   C_ghost            -
 -                    108                                   C_ghost            -
 -                    109                                   C_ghost            -
 -                    110                                   C_ghost            -
 -                    111                                   C_ghost            -
 -                    112                                   C_ghost            -
 -                    113                                   Na                 -
 -------------------------------------------------------------------------------

 *******************************************************************************
 *******************************************************************************
 **                                                                           **
 **     #####                         ##              ##                      **
 **    ##   ##            ##          ##              ##                      **
 **   ##     ##                       ##            ######                    **
 **   ##     ##  ##   ##  ##   #####  ##  ##   ####   ##    #####    #####    **
 **   ##     ##  ##   ##  ##  ##      ## ##   ##      ##   ##   ##  ##   ##   **
 **   ##  ## ##  ##   ##  ##  ##      ####     ###    ##   ######   ######    **
 **    ##  ###   ##   ##  ##  ##      ## ##      ##   ##   ##       ##        **
 **     #######   #####   ##   #####  ##  ##  ####    ##    #####   ##        **
 **           ##                                                    ##        **
 **                                                                           **
 **                                                ... make the atoms dance   **
 **                                                                           **
 **            Copyright (C) by CP2K developers group (2000 - 2018)           **
 **                                                                           **
 *******************************************************************************


 TOTAL NUMBERS AND MAXIMUM NUMBERS

  Total number of            - Atomic kinds:                                   2
                             - Atoms:                                        113
                             - Shell sets:                                   113
                             - Shells:                                       565
                             - Primitive Cartesian functions:                567
                             - Cartesian basis functions:                   1577
                             - Spherical basis functions:                   1465

  Maximum angular momentum of- Orbital basis functions:                        2
                             - Local part of the GTH pseudopotential:          2
                             - Non-local part of the GTH pseudopotential:      1


 SCF PARAMETERS         Density guess:                                    ATOMIC
                        --------------------------------------------------------
                        max_scf:                                             400
                        max_scf_history:                                       0
                        max_diis:                                              4
                        --------------------------------------------------------
                        eps_scf:                                        3.00E-07
                        eps_scf_history:                                0.00E+00
                        eps_diis:                                       1.00E-01
                        eps_eigval:                                     1.00E-05
                        --------------------------------------------------------
                        level_shift [a.u.]:                                 0.00
                        added MOs                                       100  100
                        --------------------------------------------------------
                        Mixing method:                            BROYDEN_MIXING
                                                charge density mixing in g-space
                        --------------------------------------------------------
                        Smear method:                                FERMI_DIRAC
                        Electronic temperature [K]:                        300.0
                        Electronic temperature [a.u.]:                  9.50E-04
                        Accuracy threshold:                             1.00E-10
                        --------------------------------------------------------
                        Outer loop SCF in use 
                        No variables optimised in outer loop
                        eps_scf                                         1.00E-06
                        max_scf                                              100
                        DIIS optimization
                        DIIS buffer length                                     3
                        step_size                                       5.00E-01

 Spin 1

 Number of electrons:                                                          5
 Number of occupied orbitals:                                                  5
 Number of molecular orbitals:                                               105

 Spin 2

 Number of electrons:                                                          4
 Number of occupied orbitals:                                                  4
 Number of molecular orbitals:                                               104

 Number of orbital functions:                                               1465
 Number of independent orbital functions:                                   1465

 Extrapolation method: initial_guess


 SCF WAVEFUNCTION OPTIMIZATION

  Step     Update method      Time    Convergence         Total energy    Change
  ------------------------------------------------------------------------------
     1 NoMix/Diag. 0.10E+00    3.2     0.36245943       -47.1638767315 -4.72E+01
     2 Broy./Diag. 0.10E+00    5.9     0.01262226       -47.1426531087  2.12E-02
     3 Broy./Diag. 0.10E+00    6.1     0.07449229       -47.1641025571 -2.14E-02
     4 Broy./Diag. 0.10E+00    6.1     0.00087815       -47.1472399117  1.69E-02
     5 Broy./Diag. 0.10E+00    6.2     0.00675050       -47.1577523428 -1.05E-02
     6 Broy./Diag. 0.10E+00    6.3     0.00766111       -47.1510876284  6.66E-03
     7 Broy./Diag. 0.10E+00    6.4     0.01065400       -47.1560512401 -4.96E-03
     8 Broy./Diag. 0.10E+00    6.5     0.00243934       -47.1674130207 -1.14E-02
     9 Broy./Diag. 0.10E+00    6.7     0.00507497       -47.1668201059  5.93E-04
    10 Broy./Diag. 0.10E+00    6.8     0.00250603       -47.1718058757 -4.99E-03
    11 Broy./Diag. 0.10E+00    6.8     0.00089589       -47.1747917855 -2.99E-03
    12 Broy./Diag. 0.10E+00    6.9     0.00367105       -47.1706579383  4.13E-03
    13 Broy./Diag. 0.10E+00    6.8     0.00136332       -47.1740444018 -3.39E-03
    14 Broy./Diag. 0.10E+00    6.8     0.00095396       -47.1691070224  4.94E-03
    15 Broy./Diag. 0.10E+00    6.8     0.00094912       -47.1679000935  1.21E-03
    16 Broy./Diag. 0.10E+00    6.8     0.00012728       -47.1687892174 -8.89E-04
    17 Broy./Diag. 0.10E+00    6.8     0.00033135       -47.1675357552  1.25E-03
    18 Broy./Diag. 0.10E+00    6.8     0.00054753       -47.1571820142  1.04E-02
    19 Broy./Diag. 0.10E+00    6.8     0.00054323       -47.1543764583  2.81E-03
    20 Broy./Diag. 0.10E+00    6.8     0.00026499       -47.1522709883  2.11E-03
    21 Broy./Diag. 0.10E+00    6.8     0.00021187       -47.1454886109  6.78E-03
    22 Broy./Diag. 0.10E+00    6.9     0.00009925       -47.1434304095  2.06E-03
    23 Broy./Diag. 0.10E+00    6.8     0.00037713       -47.1518783404 -8.45E-03
    24 Broy./Diag. 0.10E+00    6.8     0.00024781       -47.1534736118 -1.60E-03
    25 Broy./Diag. 0.10E+00    6.8     0.00020417       -47.1543164782 -8.43E-04
    26 Broy./Diag. 0.10E+00    6.8     0.00022413       -47.1570416249 -2.73E-03
    27 Broy./Diag. 0.10E+00    6.8     0.00009550       -47.1564797560  5.62E-04
    28 Broy./Diag. 0.10E+00    6.8     0.00022791       -47.1568091868 -3.29E-04
    29 Broy./Diag. 0.10E+00    6.8     0.00006515       -47.1568762819 -6.71E-05
    30 Broy./Diag. 0.10E+00    6.8     0.00009557       -47.1566780532  1.98E-04
    31 Broy./Diag. 0.10E+00    6.8     0.00003407       -47.1559345158  7.44E-04
    32 Broy./Diag. 0.10E+00    6.8     0.00007795       -47.1551573366  7.77E-04
    33 Broy./Diag. 0.10E+00    6.8     0.00014520       -47.1550451625  1.12E-04
    34 Broy./Diag. 0.10E+00    6.8     0.00002110       -47.1550700004 -2.48E-05
    35 Broy./Diag. 0.10E+00    6.8     0.00004330       -47.1548204902  2.50E-04
    36 Broy./Diag. 0.10E+00    6.8     0.00005025       -47.1547754301  4.51E-05
    37 Broy./Diag. 0.10E+00    6.8     0.00000806       -47.1548880277 -1.13E-04
    38 Broy./Diag. 0.10E+00    6.8     0.00001062       -47.1549029418 -1.49E-05
    39 Broy./Diag. 0.10E+00    6.8     0.00001813       -47.1549080168 -5.07E-06
    40 Broy./Diag. 0.10E+00    6.8     0.00001728       -47.1549143090 -6.29E-06
    41 Broy./Diag. 0.10E+00    6.8     0.00000862       -47.1548313119  8.30E-05
    42 Broy./Diag. 0.10E+00    6.8     0.00001841       -47.1547997529  3.16E-05
    43 Broy./Diag. 0.10E+00    6.8     0.00001996       -47.1547732499  2.65E-05
    44 Broy./Diag. 0.10E+00    6.8     0.00001220       -47.1547962190 -2.30E-05
    45 Broy./Diag. 0.10E+00    6.8     0.00000489       -47.1547370411  5.92E-05
    46 Broy./Diag. 0.10E+00    6.8     0.00001430       -47.1547154001  2.16E-05
    47 Broy./Diag. 0.10E+00    6.8     0.00000782       -47.1545707438  1.45E-04
    48 Broy./Diag. 0.10E+00    6.8     0.00000795       -47.1545840599 -1.33E-05
    49 Broy./Diag. 0.10E+00    6.8     0.00000598       -47.1546644199 -8.04E-05
    50 Broy./Diag. 0.10E+00    6.8     0.00000829       -47.1546971311 -3.27E-05
    51 Broy./Diag. 0.10E+00    6.8     0.00000591       -47.1546899985  7.13E-06
    52 Broy./Diag. 0.10E+00    6.8     0.00000565       -47.1546983033 -8.30E-06
    53 Broy./Diag. 0.10E+00    6.8     0.00000942       -47.1547419535 -4.37E-05
    54 Broy./Diag. 0.10E+00    6.8     0.00000295       -47.1547694815 -2.75E-05
    55 Broy./Diag. 0.10E+00    6.8     0.00000292       -47.1547382488  3.12E-05
    56 Broy./Diag. 0.10E+00    6.8     0.00000267       -47.1547297765  8.47E-06
    57 Broy./Diag. 0.10E+00    6.8     0.00000259       -47.1547376389 -7.86E-06
    58 Broy./Diag. 0.10E+00    6.8     0.00000201       -47.1547314313  6.21E-06
    59 Broy./Diag. 0.10E+00    6.8     0.00000164       -47.1547228639  8.57E-06
    60 Broy./Diag. 0.10E+00    6.8     0.00000279       -47.1547462259 -2.34E-05
    61 Broy./Diag. 0.10E+00    6.8     0.00000170       -47.1547403266  5.90E-06
    62 Broy./Diag. 0.10E+00    6.8     0.00000138       -47.1547354309  4.90E-06
    63 Broy./Diag. 0.10E+00    6.8     0.00000102       -47.1547344210  1.01E-06
    64 Broy./Diag. 0.10E+00    6.8     0.00000111       -47.1547249791  9.44E-06
    65 Broy./Diag. 0.10E+00    6.8     0.00000189       -47.1547283830 -3.40E-06
    66 Broy./Diag. 0.10E+00    6.8     0.00000189       -47.1547307882 -2.41E-06
    67 Broy./Diag. 0.10E+00    6.8     0.00000141       -47.1547237452  7.04E-06
    68 Broy./Diag. 0.10E+00    6.8     0.00000087       -47.1547243711 -6.26E-07
    69 Broy./Diag. 0.10E+00    6.8     0.00000352       -47.1547193791  4.99E-06
    70 Broy./Diag. 0.10E+00    6.8     0.00000115       -47.1547258545 -6.48E-06
    71 Broy./Diag. 0.10E+00    6.8     0.00000166       -47.1547334575 -7.60E-06
    72 Broy./Diag. 0.10E+00    6.8     0.00000087       -47.1547328346  6.23E-07
    73 Broy./Diag. 0.10E+00    6.8     0.00000082       -47.1547291659  3.67E-06
    74 Broy./Diag. 0.10E+00    6.8     0.00000100       -47.1547277612  1.40E-06
    75 Broy./Diag. 0.10E+00    6.8     0.00000087       -47.1547294224 -1.66E-06
    76 Broy./Diag. 0.10E+00    6.8     0.00000057       -47.1547275331  1.89E-06
    77 Broy./Diag. 0.10E+00    6.8     0.00000068       -47.1547268572  6.76E-07
    78 Broy./Diag. 0.10E+00    6.8     0.00000088       -47.1547279014 -1.04E-06
    79 Broy./Diag. 0.10E+00    6.8     0.00000041       -47.1547272986  6.03E-07
    80 Broy./Diag. 0.10E+00    6.8     0.00000044       -47.1547271468  1.52E-07
    81 Broy./Diag. 0.10E+00    6.8     0.00000039       -47.1547263209  8.26E-07
    82 Broy./Diag. 0.10E+00    6.8     0.00000033       -47.1547261875  1.33E-07
    83 Broy./Diag. 0.10E+00    6.8     0.00000207       -47.1547251635  1.02E-06
    84 Broy./Diag. 0.10E+00    6.8     0.00000047       -47.1547218824  3.28E-06
    85 Broy./Diag. 0.10E+00    6.8     0.00000085       -47.1547209004  9.82E-07
    86 Broy./Diag. 0.10E+00    6.8     0.00000031       -47.1547234089 -2.51E-06
    87 Broy./Diag. 0.10E+00    6.7     0.00000080       -47.1547235335 -1.25E-07
    88 Broy./Diag. 0.10E+00    6.7     0.00000119       -47.1547248608 -1.33E-06
    89 Broy./Diag. 0.10E+00    6.7     0.00000044       -47.1547299429 -5.08E-06
    90 Broy./Diag. 0.10E+00    6.7     0.00000022       -47.1547289448  9.98E-07

  *** SCF run converged in    90 steps ***


  Electronic density on regular grids:         -8.9999348803        0.0000651197
  Core density on regular grids:                9.0000000000       -0.0000000000
  Total charge density on r-space grids:        0.0000651197
  Total charge density g-space grids:           0.0000651197

  Overlap energy of the core charge distribution:               0.00000000000000
  Self energy of the core charge distribution:                -96.60649019442629
  Core Hamiltonian energy:                                     29.74231959020420
  Hartree energy:                                              26.75295690745575
  Exchange-correlation energy:                                 -7.04351394140735
  Dispersion energy:                                           -0.00000130538029
  Electronic entropic energy:                                  -0.00000000120249
  Fermi energy:                                                -0.08526106986386

  Total energy:                                               -47.15472894475595

  outer SCF iter =    1 RMS gradient =   0.22E-06 energy =        -47.1547289448
  outer SCF loop converged in   1 iterations or   90 steps


  Integrated absolute spin density  :                               1.0000150102
  WARNING: S**2 computation does not yet treat fractional occupied orbitals

 *** WARNING in qs_loc_utils.F:1387 :: User requested the calculation of ***
 *** the localized wavefunction but the section LOCALIZE was not         ***
 *** specified. Localization will not be performed!                      ***


 -------------------------------------------------------------------------------
 -                                                                             -
 -  BSSE CALCULATION         FRAGMENT CONF: 11        FRAGMENT SUBCONF: 11     -
 -                           CHARGE =     0           MULTIPLICITY =     0     -
 -                                                                             -
 -                 ATOM INDEX                              ATOM NAME           -
 -                 ----------                              ---------           -
 -                      1                                   C                  -
 -                      2                                   C                  -
 -                      3                                   C                  -
 -                      4                                   C                  -
 -                      5                                   C                  -
 -                      6                                   C                  -
 -                      7                                   C                  -
 -                      8                                   C                  -
 -                      9                                   C                  -
 -                     10                                   C                  -
 -                     11                                   C                  -
 -                     12                                   C                  -
 -                     13                                   C                  -
 -                     14                                   C                  -
 -                     15                                   C                  -
 -                     16                                   C                  -
 -                     17                                   C                  -
 -                     18                                   C                  -
 -                     19                                   C                  -
 -                     20                                   C                  -
 -                     21                                   C                  -
 -                     22                                   C                  -
 -                     23                                   C                  -
 -                     24                                   C                  -
 -                     25                                   C                  -
 -                     26                                   C                  -
 -                     27                                   C                  -
 -                     28                                   C                  -
 -                     29                                   C                  -
 -                     30                                   C                  -
 -                     31                                   C                  -
 -                     32                                   C                  -
 -                     33                                   C                  -
 -                     34                                   C                  -
 -                     35                                   C                  -
 -                     36                                   C                  -
 -                     37                                   C                  -
 -                     38                                   C                  -
 -                     39                                   C                  -
 -                     40                                   C                  -
 -                     41                                   C                  -
 -                     42                                   C                  -
 -                     43                                   C                  -
 -                     44                                   C                  -
 -                     45                                   C                  -
 -                     46                                   C                  -
 -                     47                                   C                  -
 -                     48                                   C                  -
 -                     49                                   C                  -
 -                     50                                   C                  -
 -                     51                                   C                  -
 -                     52                                   C                  -
 -                     53                                   C                  -
 -                     54                                   C                  -
 -                     55                                   C                  -
 -                     56                                   C                  -
 -                     57                                   C                  -
 -                     58                                   C                  -
 -                     59                                   C                  -
 -                     60                                   C                  -
 -                     61                                   C                  -
 -                     62                                   C                  -
 -                     63                                   C                  -
 -                     64                                   C                  -
 -                     65                                   C                  -
 -                     66                                   C                  -
 -                     67                                   C                  -
 -                     68                                   C                  -
 -                     69                                   C                  -
 -                     70                                   C                  -
 -                     71                                   C                  -
 -                     72                                   C                  -
 -                     73                                   C                  -
 -                     74                                   C                  -
 -                     75                                   C                  -
 -                     76                                   C                  -
 -                     77                                   C                  -
 -                     78                                   C                  -
 -                     79                                   C                  -
 -                     80                                   C                  -
 -                     81                                   C                  -
 -                     82                                   C                  -
 -                     83                                   C                  -
 -                     84                                   C                  -
 -                     85                                   C                  -
 -                     86                                   C                  -
 -                     87                                   C                  -
 -                     88                                   C                  -
 -                     89                                   C                  -
 -                     90                                   C                  -
 -                     91                                   C                  -
 -                     92                                   C                  -
 -                     93                                   C                  -
 -                     94                                   C                  -
 -                     95                                   C                  -
 -                     96                                   C                  -
 -                     97                                   C                  -
 -                     98                                   C                  -
 -                     99                                   C                  -
 -                    100                                   C                  -
 -                    101                                   C                  -
 -                    102                                   C                  -
 -                    103                                   C                  -
 -                    104                                   C                  -
 -                    105                                   C                  -
 -                    106                                   C                  -
 -                    107                                   C                  -
 -                    108                                   C                  -
 -                    109                                   C                  -
 -                    110                                   C                  -
 -                    111                                   C                  -
 -                    112                                   C                  -
 -                    113                                   Na                 -
 -------------------------------------------------------------------------------

 *******************************************************************************
 *******************************************************************************
 **                                                                           **
 **     #####                         ##              ##                      **
 **    ##   ##            ##          ##              ##                      **
 **   ##     ##                       ##            ######                    **
 **   ##     ##  ##   ##  ##   #####  ##  ##   ####   ##    #####    #####    **
 **   ##     ##  ##   ##  ##  ##      ## ##   ##      ##   ##   ##  ##   ##   **
 **   ##  ## ##  ##   ##  ##  ##      ####     ###    ##   ######   ######    **
 **    ##  ###   ##   ##  ##  ##      ## ##      ##   ##   ##       ##        **
 **     #######   #####   ##   #####  ##  ##  ####    ##    #####   ##        **
 **           ##                                                    ##        **
 **                                                                           **
 **                                                ... make the atoms dance   **
 **                                                                           **
 **            Copyright (C) by CP2K developers group (2000 - 2018)           **
 **                                                                           **
 *******************************************************************************


 TOTAL NUMBERS AND MAXIMUM NUMBERS

  Total number of            - Atomic kinds:                                   2
                             - Atoms:                                        113
                             - Shell sets:                                   113
                             - Shells:                                       565
                             - Primitive Cartesian functions:                567
                             - Cartesian basis functions:                   1577
                             - Spherical basis functions:                   1465

  Maximum angular momentum of- Orbital basis functions:                        2
                             - Local part of the GTH pseudopotential:          2
                             - Non-local part of the GTH pseudopotential:      1


 SCF PARAMETERS         Density guess:                                    ATOMIC
                        --------------------------------------------------------
                        max_scf:                                             400
                        max_scf_history:                                       0
                        max_diis:                                              4
                        --------------------------------------------------------
                        eps_scf:                                        3.00E-07
                        eps_scf_history:                                0.00E+00
                        eps_diis:                                       1.00E-01
                        eps_eigval:                                     1.00E-05
                        --------------------------------------------------------
                        level_shift [a.u.]:                                 0.00
                        added MOs                                       100  100
                        --------------------------------------------------------
                        Mixing method:                            BROYDEN_MIXING
                                                charge density mixing in g-space
                        --------------------------------------------------------
                        Smear method:                                FERMI_DIRAC
                        Electronic temperature [K]:                        300.0
                        Electronic temperature [a.u.]:                  9.50E-04
                        Accuracy threshold:                             1.00E-10
                        --------------------------------------------------------
                        Outer loop SCF in use 
                        No variables optimised in outer loop
                        eps_scf                                         1.00E-06
                        max_scf                                              100
                        DIIS optimization
                        DIIS buffer length                                     3
                        step_size                                       5.00E-01

 Spin 1

 Number of electrons:                                                        229
 Number of occupied orbitals:                                                229
 Number of molecular orbitals:                                               329

 Spin 2

 Number of electrons:                                                        228
 Number of occupied orbitals:                                                228
 Number of molecular orbitals:                                               328

 Number of orbital functions:                                               1465
 Number of independent orbital functions:                                   1465

 Extrapolation method: initial_guess


 SCF WAVEFUNCTION OPTIMIZATION

  Step     Update method      Time    Convergence         Total energy    Change
  ------------------------------------------------------------------------------
     1 NoMix/Diag. 0.10E+00    3.3     0.49822415      -675.0818349604 -6.75E+02
     2 Broy./Diag. 0.10E+00    6.0     0.18680087      -649.7927132698  2.53E+01
[...]
   357 Broy./Diag. 0.10E+00    6.9     0.00000048      -679.7813299318 -3.20E-07
   358 Broy./Diag. 0.10E+00    6.9     0.00000322      -679.7813298983  3.35E-08
   359 Broy./Diag. 0.10E+00    6.8     0.00000773      -679.7813308779 -9.80E-07
   360 Broy./Diag. 0.10E+00    6.8     0.00000766      -679.7813322883 -1.41E-06
   361 Broy./Diag. 0.10E+00    6.8     0.00000271      -679.7813291017  3.19E-06
   362 Broy./Diag. 0.10E+00    6.8     0.00000340      -679.7813301034 -1.00E-06
   363 Broy./Diag. 0.10E+00    6.8     0.00000391      -679.7813299846  1.19E-07
   364 Broy./Diag. 0.10E+00    6.8     0.00000298      -679.7813295430  4.42E-07
   365 Broy./Diag. 0.10E+00    6.8     0.00000200      -679.7813325045 -2.96E-06
   366 Broy./Diag. 0.10E+00    6.9     0.00000162      -679.7813324588  4.57E-08
   367 Broy./Diag. 0.10E+00    6.8     0.00000157      -679.7813322329  2.26E-07
   368 Broy./Diag. 0.10E+00    6.8     0.00000100      -679.7813328212 -5.88E-07
   369 Broy./Diag. 0.10E+00    6.8     0.00000211      -679.7813329860 -1.65E-07
   370 Broy./Diag. 0.10E+00    6.9     0.00000197      -679.7813329531  3.29E-08
   371 Broy./Diag. 0.10E+00    6.8     0.00000239      -679.7813347455 -1.79E-06
   372 Broy./Diag. 0.10E+00    6.9     0.00000281      -679.7813330941  1.65E-06
   373 Broy./Diag. 0.10E+00    6.8     0.00000319      -679.7813325516  5.43E-07
   374 Broy./Diag. 0.10E+00    6.9     0.00000367      -679.7813325655 -1.39E-08
   375 Broy./Diag. 0.10E+00    6.9     0.00000597      -679.7813328522 -2.87E-07
   376 Broy./Diag. 0.10E+00    6.8     0.00000037      -679.7813339514 -1.10E-06
   377 Broy./Diag. 0.10E+00    6.8     0.00000459      -679.7813343173 -3.66E-07
   378 Broy./Diag. 0.10E+00    6.8     0.00000445      -679.7813319317  2.39E-06
   379 Broy./Diag. 0.10E+00    6.8     0.00000178      -679.7813314273  5.04E-07
   380 Broy./Diag. 0.10E+00    6.8     0.00000290      -679.7813321499 -7.23E-07
   381 Broy./Diag. 0.10E+00    6.8     0.00000098      -679.7813321068  4.30E-08
   382 Broy./Diag. 0.10E+00    6.9     0.00000046      -679.7813307761  1.33E-06
   383 Broy./Diag. 0.10E+00    6.9     0.00000081      -679.7813307690  7.12E-09
   384 Broy./Diag. 0.10E+00    6.8     0.00000196      -679.7813321133 -1.34E-06
   385 Broy./Diag. 0.10E+00    6.8     0.00000379      -679.7813332286 -1.12E-06
   386 Broy./Diag. 0.10E+00    6.9     0.00000097      -679.7813313756  1.85E-06
   387 Broy./Diag. 0.10E+00    6.8     0.00000214      -679.7813309203  4.55E-07
   388 Broy./Diag. 0.10E+00    6.9     0.00000109      -679.7813319514 -1.03E-06
   389 Broy./Diag. 0.10E+00    6.8     0.00000170      -679.7813319415  9.94E-09
   390 Broy./Diag. 0.10E+00    6.8     0.00000187      -679.7813326122 -6.71E-07
   391 Broy./Diag. 0.10E+00    6.8     0.00000247      -679.7813322219  3.90E-07
   392 Broy./Diag. 0.10E+00    6.8     0.00000154      -679.7813340721 -1.85E-06
   393 Broy./Diag. 0.10E+00    6.8     0.00000175      -679.7813341091 -3.70E-08
   394 Broy./Diag. 0.10E+00    6.8     0.00000009      -679.7813334754  6.34E-07

  *** SCF run converged in   394 steps ***


  Electronic density on regular grids:       -456.9999346287        0.0000653713
  Core density on regular grids:              456.9999999996       -0.0000000004
  Total charge density on r-space grids:        0.0000653709
  Total charge density g-space grids:           0.0000653709

  Overlap energy of the core charge distribution:               0.00001865557362
  Self energy of the core charge distribution:              -1590.12737799212982
  Core Hamiltonian energy:                                    496.86124416123300
  Hartree energy:                                             611.89220416012097
  Exchange-correlation energy:                               -198.16617364343591
  Dispersion energy:                                           -0.23330273140725
  Electronic entropic energy:                                  -0.00794608520618
  Fermi energy:                                                -0.13322909591325

  Total energy:                                              -679.78133347542791

  outer SCF iter =    5 RMS gradient =   0.94E-07 energy =       -679.7813334754
  outer SCF loop converged in   5 iterations or 1994 steps


  Integrated absolute spin density  :                               0.0187161442
  WARNING: S**2 computation does not yet treat fractional occupied orbitals

 *** WARNING in qs_loc_utils.F:1387 :: User requested the calculation of ***
 *** the localized wavefunction but the section LOCALIZE was not         ***
 *** specified. Localization will not be performed!                      ***


 -------------------------------------------------------------------------------
 -                                                                             -
 -                                 BSSE RESULTS                                -
 -                                                                             -
 -                 CP-corrected Total energy:     -679.779949                  -
 -                                                                             -
 -                       1-body contribution:     -632.569738                  -
 -                       1-body contribution:      -47.154475                  -
 -                                                                             -
 -                       2-body contribution:       -0.055736                  -
 -                 BSSE-free interaction energy:       -0.055736               -
 -------------------------------------------------------------------------------

 -------------------------------------------------------------------------------
 -                                                                             -
 -                                DBCSR STATISTICS                             -
 -                                                                             -
 -------------------------------------------------------------------------------
 COUNTER                                    TOTAL       BLAS       SMM       ACC
 flops     9 x     9 x     8               116640       0.0%    100.0%      0.0%
 flops     9 x     9 x     9               131220       0.0%    100.0%      0.0%
 flops     9 x     9 x    32              2799360       0.0%    100.0%      0.0%
 flops     9 x     9 x    68              3965760       0.0%    100.0%      0.0%
 flops     9 x    13 x     8              8592480       0.0%    100.0%      0.0%
 flops    13 x     9 x     8              8929440       0.0%    100.0%      0.0%
 flops     9 x    13 x     9              9666540       0.0%    100.0%      0.0%
 flops    13 x     9 x     9             10045620       0.0%    100.0%      0.0%
 flops     9 x     9 x    72             23258016       0.0%    100.0%      0.0%
 flops     9 x     9 x    73             23581044       0.0%    100.0%      0.0%
 flops     9 x     9 x    64             45080064       0.0%    100.0%      0.0%
 flops     9 x     9 x    96            135240192       0.0%    100.0%      0.0%
 flops     9 x    13 x    32            206219520       0.0%    100.0%      0.0%
 flops    13 x     9 x    32            214306560       0.0%    100.0%      0.0%
 flops     9 x    13 x    68            292144320       0.0%    100.0%      0.0%
 flops    13 x     9 x    68            303600960       0.0%    100.0%      0.0%
 flops    13 x    13 x     8           1384231680       0.0%    100.0%      0.0%
 flops    13 x    13 x     9           1557260640       0.0%    100.0%      0.0%
 flops     9 x    13 x    72           1713340512       0.0%    100.0%      0.0%
 flops     9 x    13 x    73           1737136908       0.0%    100.0%      0.0%
 flops    13 x     9 x    72           1780530336       0.0%    100.0%      0.0%
 flops    13 x     9 x    73           1805259924       0.0%    100.0%      0.0%
 flops     9 x    13 x    64           3320898048       0.0%    100.0%      0.0%
 flops    13 x     9 x    64           3451129344       0.0%    100.0%      0.0%
 flops     9 x    13 x    96           9962694144       0.0%    100.0%      0.0%
 flops    13 x     9 x    96          10353388032       0.0%    100.0%      0.0%
 flops    13 x    13 x    32          33221560320       0.0%    100.0%      0.0%
 flops    13 x    13 x    68          47063877120       0.0%    100.0%      0.0%
 flops    13 x    13 x    72         276015796992       0.0%    100.0%      0.0%
 flops    13 x    13 x    73         279849349728       0.0%    100.0%      0.0%
 flops    13 x    13 x    64         534990163968       0.0%    100.0%      0.0%
 flops    13 x    13 x    96        1604970491904       0.0%    100.0%      0.0%
 flops inhomo. stacks                           0       0.0%      0.0%      0.0%
 flops total                         2.814465E+12       0.0%    100.0%      0.0%
 flops max/rank                    185.895220E+09       0.0%    100.0%      0.0%
 matmuls inhomo. stacks                         0       0.0%      0.0%      0.0%
 matmuls total                          104922816       0.0%    100.0%      0.0%
 number of processed stacks                434688       0.0%    100.0%      0.0%
 average stack size                                     0.0     241.4       0.0
 marketing flops                     4.435281E+12
 -------------------------------------------------------------------------------
 # multiplications                           4528
 max memory usage/rank               1.758069E+09
 # max total images/rank                        1
 # max 3D layers                                1
 # MPI messages exchanged                  434688
 MPI messages size (bytes):
  total size                       101.647303E+09
  min size                          23.296000E+03
  max size                         286.464000E+03
  average size                     233.839672E+03
 MPI breakdown and total messages size (bytes):
             size <=      128                   0                        0
       128 < size <=     8192                   0                        0
      8192 < size <=    32768                4320                107589600
     32768 < size <=   131072               12960               1215129600
    131072 < size <=  4194304              417408             100325403360
   4194304 < size <= 16777216                   0                        0
  16777216 < size                               0                        0
 -------------------------------------------------------------------------------

 MEMORY| Estimated peak process memory [MiB]                                1677

 -------------------------------------------------------------------------------
 -                                                                             -
 -                         MESSAGE PASSING PERFORMANCE                         -
 -                                                                             -
 -------------------------------------------------------------------------------

 ROUTINE             CALLS      AVE VOLUME [Bytes]
 MP_Group             4550
 MP_Bcast             2382                 248726.
 MP_Allreduce        70429                    138.
 MP_Sync                16
 MP_Alltoall        183490               10364632.
 MP_SendRecv         54336                 746496.
 MP_ISendRecv       271860                 251100.
 MP_Wait            933311
 MP_ISend           453112                 947362.
 MP_IRecv           453112                 945527.
 MP_Recv              2210                 374165.
 MP_Memory          352824
 -------------------------------------------------------------------------------


 -------------------------------------------------------------------------------
 -                                                                             -
 -                           R E F E R E N C E S                               -
 -                                                                             -
 -------------------------------------------------------------------------------
 
 CP2K version 7.0 (Development Version), the CP2K developers group (2018).
 CP2K is freely available from https://www.cp2k.org/ .

 Schuett, Ole; Messmer, Peter; Hutter, Juerg; VandeVondele, Joost. 
 Electronic Structure Calculations on Graphics Processing Units, John Wiley & Sons, Ltd, 173-190 (2016). 
 GPU-Accelerated Sparse Matrix-Matrix Multiplication for Linear Scaling Density Functional Theory.
 http://dx.doi.org/10.1002/9781118670712.ch8


 Borstnik, U; VandeVondele, J; Weber, V; Hutter, J. 
 PARALLEL COMPUTING, 40 (5-6), 47-58 (2014). 
 Sparse matrix multiplication: The distributed block-compressed sparse
 row library.
 http://dx.doi.org/10.1016/j.parco.2014.03.012


 Hutter, J; Iannuzzi, M; Schiffmann, F; VandeVondele, J. 
 WILEY INTERDISCIPLINARY REVIEWS-COMPUTATIONAL MOLECULAR SCIENCE, 4 (1), 15-25 (2014). 
 CP2K: atomistic simulations of condensed matter systems.
 http://dx.doi.org/10.1002/wcms.1159


 Grimme, S; Ehrlich, S; Goerigk, L. 
 JOURNAL OF COMPUTATIONAL CHEMISTRY, 32, 1456 (2011). 
 Effect of the damping function in dispersion corrected density functional theory.
 http://dx.doi.org/10.1002/jcc.21759


 Grimme, S; Antony, J; Ehrlich, S; Krieg, H. 
 JOURNAL OF CHEMICAL PHYSICS, 132 (15), 154104 (2010). 
 A consistent and accurate ab initio parametrization of density
 functional dispersion correction (DFT-D) for the 94 elements H-Pu.
 http://dx.doi.org/10.1063/1.3382344


 VandeVondele, J; Hutter, J. 
 JOURNAL OF CHEMICAL PHYSICS, 127 (11), 114105 (2007). 
 Gaussian basis sets for accurate calculations on molecular systems in
 gas and condensed phases.
 http://dx.doi.org/10.1063/1.2770708


 Krack, M. 
 THEORETICAL CHEMISTRY ACCOUNTS, 114 (1-3), 145-152 (2005). 
 Pseudopotentials for H to Kr optimized for gradient-corrected
 exchange-correlation functionals.
 http://dx.doi.org/10.1007/s00214-005-0655-y


 VandeVondele, J; Krack, M; Mohamed, F; Parrinello, M; Chassaing, T;
 Hutter, J. COMPUTER PHYSICS COMMUNICATIONS, 167 (2), 103-128 (2005). 
 QUICKSTEP: Fast and accurate density functional calculations using a
 mixed Gaussian and plane waves approach.
 http://dx.doi.org/10.1016/j.cpc.2004.12.014


 Frigo, M; Johnson, SG. 
 PROCEEDINGS OF THE IEEE, 93 (2), 216-231 (2005). 
 The design and implementation of FFTW3.
 http://dx.doi.org/10.1109/JPROC.2004.840301


 Hartwigsen, C; Goedecker, S; Hutter, J. 
 PHYSICAL REVIEW B, 58 (7), 3641-3662 (1998). 
 Relativistic separable dual-space Gaussian pseudopotentials from H to Rn.
 http://dx.doi.org/10.1103/PhysRevB.58.3641


 Lippert, G; Hutter, J; Parrinello, M. 
 MOLECULAR PHYSICS, 92 (3), 477-487 (1997). 
 A hybrid Gaussian and plane wave density functional scheme.
 http://dx.doi.org/10.1080/002689797170220


 Goedecker, S; Teter, M; Hutter, J. 
 PHYSICAL REVIEW B, 54 (3), 1703-1710 (1996). 
 Separable dual-space Gaussian pseudopotentials.
 http://dx.doi.org/10.1103/PhysRevB.54.1703


 BECKE, AD. PHYSICAL REVIEW A, 38 (6), 3098-3100 (1988). 
 DENSITY-FUNCTIONAL EXCHANGE-ENERGY APPROXIMATION WITH CORRECT
 ASYMPTOTIC-BEHAVIOR.
 http://dx.doi.org/10.1103/PhysRevA.38.3098


 LEE, CT; YANG, WT; PARR, RG. 
 PHYSICAL REVIEW B, 37 (2), 785-789 (1988). 
 DEVELOPMENT OF THE COLLE-SALVETTI CORRELATION-ENERGY FORMULA INTO A
 FUNCTIONAL OF THE ELECTRON-DENSITY.
 http://dx.doi.org/10.1103/PhysRevB.37.785


 -------------------------------------------------------------------------------
 -                                                                             -
 -                                T I M I N G                                  -
 -                                                                             -
 -------------------------------------------------------------------------------
 SUBROUTINE                       CALLS  ASD         SELF TIME        TOTAL TIME
                                MAXIMUM       AVERAGE  MAXIMUM  AVERAGE  MAXIMUM
 CP2K                                 1  1.0     0.04     0.06 15512.97 15513.03
 qs_energies                          3  2.0     0.00     0.00 15510.52 15510.58
 scf_env_do_scf                       3  3.0     0.00     0.01 15504.09 15504.30
 scf_env_do_scf_inner_loop         2264  4.0     0.15     0.52 15504.09 15504.29
 qs_ks_update_qs_env               2264  5.0     0.02     0.03  6482.92  6483.11
 rebuild_ks_matrix                 2264  6.0     0.01     0.01  6480.79  6480.96
 qs_ks_build_kohn_sham_matrix      2264  7.0     0.28     0.34  6480.79  6480.95
 qs_rho_update_rho                 2267  5.0     0.02     0.03  4584.01  4584.89
 calculate_rho_elec                4534  6.0  1980.59  2231.73  4583.99  4584.86
 sum_up_and_integrate              2264  8.0    22.81    23.91  3875.62  3875.78
 pw_transfer                      52091  9.0     3.92     4.58  3822.22  3863.99
 integrate_v_rspace                4528  9.0  1910.05  2148.81  3852.79  3853.91
 fft_wrap_pw1pw2                  47563 10.0     0.48     0.56  3771.91  3813.55
 fft_wrap_pw1pw2_150              20377 10.2   307.54   314.08  3437.88  3483.97
 gspace_mixing                     2257  5.0    23.93    24.90  3278.28  3278.30
 density_rs2pw                     4534  7.0     0.24     0.27  2474.56  2876.55
 fft3d_ps                         47563 12.0  1664.69  1716.97  2687.42  2727.13
 broyden_mixing                    2257  6.0  2221.75  2256.41  2297.78  2308.71
 qs_vxc_create                     2264  8.0     0.05     0.06  2000.35  2010.01
 xc_vxc_pw_create                  2264  9.0   171.00   184.52  2000.30  2009.95
 rs_pw_transfer                   36251  9.5     0.55     0.64  1398.99  1816.38
 potential_pw2rs                   4528 10.0     2.45     2.82  1690.30  1691.35
 xc_rho_set_and_dset_create        2264 10.0   181.73   189.83  1324.73  1360.64
 qs_scf_new_mos                    2264  5.0     0.05     0.05  1156.57  1157.32
 eigensolver                       4528  6.0     0.32     0.41  1092.64  1092.85
 mp_waitany                      380664 11.5   471.96   933.08   471.96   933.08
 rs_pw_transfer_RS2PW_150          4537  9.0   202.73   220.00   524.05   928.45
 cp_fm_syevd                       4528  7.0     0.03     0.04   872.26   872.57
 cp_fm_syevd_base                  4528  8.0   872.22   872.53   872.22   872.53
 pw_nn_compose_r                  27168 10.5   637.11   659.87   749.59   824.30
 xc_functional_eval                4528 11.0     0.04     0.05   667.20   702.18
 rs_distribute_matrix              9062  8.5     9.86    13.15   271.23   659.56
 mp_alltoall_d11v                 63419  9.3   267.18   657.99   267.18   657.99
 x_to_yz                          24896 13.3   392.30   410.22   592.90   612.80
 rs_pw_transfer_PW2RS_150          4528 12.0   347.11   352.09   507.26   512.39
 lyp_lsd_eval                      2264 12.0   481.01   507.08   481.01   507.08
 yz_to_x                          22667 12.6   252.08   265.73   429.05   457.21
 mp_alltoall_z22v                 47563 14.0   377.56   430.18   377.56   430.18
 pw_scatter_p                     24896 12.3   386.57   390.15   386.57   390.15
 pw_gather_p                      22667 11.6   364.27   370.87   364.27   370.87
 -------------------------------------------------------------------------------

 The number of warnings for this run is : 3
 
 -------------------------------------------------------------------------------
  **** **** ******  **  PROGRAM ENDED AT                 2024-07-24 19:31:59.327
 ***** ** ***  *** **   PROGRAM RAN ON                                sebnode107
 **    ****   ******    PROGRAM RAN BY                                    luehrs
 ***** **    ** ** **   PROGRAM PROCESS ID                                343423
  **** **  *******  **  PROGRAM STOPPED IN /home/luehrs/PhD/Sodium_batteries/Sod
                                           ium-graphene-edge/Zig_zag_2/No_hydrog
                                           en
