 DBCSR| Multiplication driver                                               XSMM
 DBCSR| Multrec recursion limit                                              512
 DBCSR| Multiplication stack size                                           1000
 DBCSR| Maximum elements for images                                    UNLIMITED
 DBCSR| Multiplicative factor virtual images                                   1
 DBCSR| Multiplication size stacks                                             3
 DBCSR| Number of 3D layers                                               SINGLE
 DBCSR| Use MPI memory allocation                                              T
 DBCSR| Use RMA algorithm                                                      F
 DBCSR| Use Communication thread                                               T
 DBCSR| Communication thread load                                             87


  **** **** ******  **  PROGRAM STARTED AT               2024-07-19 15:21:06.221
 ***** ** ***  *** **   PROGRAM STARTED ON                            sebnode131
 **    ****   ******    PROGRAM STARTED BY                                luehrs
 ***** **    ** ** **   PROGRAM PROCESS ID                                319818
  **** **  *******  **  PROGRAM STARTED IN /home/luehrs/PhD/Sodium_batteries/Sod
                                           ium-graphene-edge/Zig_zag_2/No_hydrog
                                           en

 CP2K| version string:                    CP2K version 7.0 (Development Version)
 CP2K| source code revision number:                                             
 CP2K| cp2kflags: libint fftw3 libxc parallel mpi3 scalapack xsmm libderiv_max_a
 CP2K|            m1=8 libint_max_am=9 max_contr=4
 CP2K| is freely available from                            https://www.cp2k.org/
 CP2K| Program compiled at                         Sun Jun 24 14:37:16 CEST 2018
 CP2K| Program compiled on                                            sebstorage
 CP2K| Program compiled for                                Linux-x86-64-gfortran
 CP2K| Data directory path    /home/brehm/Software_Batchnode/2018/Source/cp2k_18
 CP2K| Input file name                                         input.zig-zag.inp

 GLOBAL| Force Environment number                                              1
 GLOBAL| Basis set file name                                      ./BASIS_MOLOPT
 GLOBAL| Potential file name                                    ./GTH_POTENTIALS
 GLOBAL| MM Potential file name                                     MM_POTENTIAL
 GLOBAL| Coordinate file name           graphene_no_hydrogen_zig-zag_relaxed.xyz
 GLOBAL| Method name                                                        CP2K
 GLOBAL| Project name                                      graphene_zig_zag_BSSE
 GLOBAL| Preferred FFT library                                             FFTW3
 GLOBAL| Preferred diagonalization lib.                                       SL
 GLOBAL| Run type                                                           BSSE
 GLOBAL| All-to-all communication in single precision                          F
 GLOBAL| FFTs using library dependent lengths                                  F
 GLOBAL| Global print level                                                  LOW
 GLOBAL| Total number of message passing processes                            16
 GLOBAL| Number of threads for this process                                    1
 GLOBAL| This output is from process                                           0
 GLOBAL| CPU model name :  AMD EPYC 7513 32-Core Processor

 MEMORY| system memory details [Kb]
 MEMORY|                        rank 0           min           max       average
 MEMORY| MemTotal            131901556     131901556     131901556     131901556
 MEMORY| MemFree              46895356      46895356      46895356      46895356
 MEMORY| Buffers                 16672         16672         16672         16672
 MEMORY| Cached               14914356      14914356      14914356      14914356
 MEMORY| Slab                  1122800       1122800       1122800       1122800
 MEMORY| SReclaimable           293836        293836        293836        293836
 MEMORY| MemLikelyFree        62120220      62120220      62120220      62120220


 GENERATE|  Preliminary Number of Bonds generated:                             0
 GENERATE|  Achieved consistency in connectivity generation.

 *******************************************************************************
 *******************************************************************************
 **                                                                           **
 **     #####                         ##              ##                      **
 **    ##   ##            ##          ##              ##                      **
 **   ##     ##                       ##            ######                    **
 **   ##     ##  ##   ##  ##   #####  ##  ##   ####   ##    #####    #####    **
 **   ##     ##  ##   ##  ##  ##      ## ##   ##      ##   ##   ##  ##   ##   **
 **   ##  ## ##  ##   ##  ##  ##      ####     ###    ##   ######   ######    **
 **    ##  ###   ##   ##  ##  ##      ## ##      ##   ##   ##       ##        **
 **     #######   #####   ##   #####  ##  ##  ####    ##    #####   ##        **
 **           ##                                                    ##        **
 **                                                                           **
 **                                                ... make the atoms dance   **
 **                                                                           **
 **            Copyright (C) by CP2K developers group (2000 - 2018)           **
 **                                                                           **
 *******************************************************************************


 TOTAL NUMBERS AND MAXIMUM NUMBERS

  Total number of            - Atomic kinds:                                   2
                             - Atoms:                                        113
                             - Shell sets:                                   113
                             - Shells:                                       565
                             - Primitive Cartesian functions:                567
                             - Cartesian basis functions:                   1577
                             - Spherical basis functions:                   1465

  Maximum angular momentum of- Orbital basis functions:                        2
                             - Local part of the GTH pseudopotential:          2
                             - Non-local part of the GTH pseudopotential:      1


 SCF PARAMETERS         Density guess:                                    ATOMIC
                        --------------------------------------------------------
                        max_scf:                                             400
                        max_scf_history:                                       0
                        max_diis:                                              4
                        --------------------------------------------------------
                        eps_scf:                                        3.00E-07
                        eps_scf_history:                                0.00E+00
                        eps_diis:                                       1.00E-01
                        eps_eigval:                                     1.00E-05
                        --------------------------------------------------------
                        level_shift [a.u.]:                                 0.00
                        added MOs                                       100  100
                        --------------------------------------------------------
                        Mixing method:                            BROYDEN_MIXING
                                                charge density mixing in g-space
                        --------------------------------------------------------
                        Smear method:                                FERMI_DIRAC
                        Electronic temperature [K]:                        300.0
                        Electronic temperature [a.u.]:                  9.50E-04
                        Accuracy threshold:                             1.00E-10
                        --------------------------------------------------------
                        Outer loop SCF in use 
                        No variables optimised in outer loop
                        eps_scf                                         1.00E-06
                        max_scf                                              100
                        DIIS optimization
                        DIIS buffer length                                     3
                        step_size                                       5.00E-01

 -------------------------------------------------------------------------------
 -                                                                             -
 -  BSSE CALCULATION         FRAGMENT CONF: 10        FRAGMENT SUBCONF: 10     -
 -                           CHARGE =     0           MULTIPLICITY =     0     -
 -                                                                             -
 -                 ATOM INDEX                              ATOM NAME           -
 -                 ----------                              ---------           -
 -                      1                                   C                  -
 -                      2                                   C                  -
 -                      3                                   C                  -
 -                      4                                   C                  -
 -                      5                                   C                  -
 -                      6                                   C                  -
 -                      7                                   C                  -
 -                      8                                   C                  -
 -                      9                                   C                  -
 -                     10                                   C                  -
 -                     11                                   C                  -
 -                     12                                   C                  -
 -                     13                                   C                  -
 -                     14                                   C                  -
 -                     15                                   C                  -
 -                     16                                   C                  -
 -                     17                                   C                  -
 -                     18                                   C                  -
 -                     19                                   C                  -
 -                     20                                   C                  -
 -                     21                                   C                  -
 -                     22                                   C                  -
 -                     23                                   C                  -
 -                     24                                   C                  -
 -                     25                                   C                  -
 -                     26                                   C                  -
 -                     27                                   C                  -
 -                     28                                   C                  -
 -                     29                                   C                  -
 -                     30                                   C                  -
 -                     31                                   C                  -
 -                     32                                   C                  -
 -                     33                                   C                  -
 -                     34                                   C                  -
 -                     35                                   C                  -
 -                     36                                   C                  -
 -                     37                                   C                  -
 -                     38                                   C                  -
 -                     39                                   C                  -
 -                     40                                   C                  -
 -                     41                                   C                  -
 -                     42                                   C                  -
 -                     43                                   C                  -
 -                     44                                   C                  -
 -                     45                                   C                  -
 -                     46                                   C                  -
 -                     47                                   C                  -
 -                     48                                   C                  -
 -                     49                                   C                  -
 -                     50                                   C                  -
 -                     51                                   C                  -
 -                     52                                   C                  -
 -                     53                                   C                  -
 -                     54                                   C                  -
 -                     55                                   C                  -
 -                     56                                   C                  -
 -                     57                                   C                  -
 -                     58                                   C                  -
 -                     59                                   C                  -
 -                     60                                   C                  -
 -                     61                                   C                  -
 -                     62                                   C                  -
 -                     63                                   C                  -
 -                     64                                   C                  -
 -                     65                                   C                  -
 -                     66                                   C                  -
 -                     67                                   C                  -
 -                     68                                   C                  -
 -                     69                                   C                  -
 -                     70                                   C                  -
 -                     71                                   C                  -
 -                     72                                   C                  -
 -                     73                                   C                  -
 -                     74                                   C                  -
 -                     75                                   C                  -
 -                     76                                   C                  -
 -                     77                                   C                  -
 -                     78                                   C                  -
 -                     79                                   C                  -
 -                     80                                   C                  -
 -                     81                                   C                  -
 -                     82                                   C                  -
 -                     83                                   C                  -
 -                     84                                   C                  -
 -                     85                                   C                  -
 -                     86                                   C                  -
 -                     87                                   C                  -
 -                     88                                   C                  -
 -                     89                                   C                  -
 -                     90                                   C                  -
 -                     91                                   C                  -
 -                     92                                   C                  -
 -                     93                                   C                  -
 -                     94                                   C                  -
 -                     95                                   C                  -
 -                     96                                   C                  -
 -                     97                                   C                  -
 -                     98                                   C                  -
 -                     99                                   C                  -
 -                    100                                   C                  -
 -                    101                                   C                  -
 -                    102                                   C                  -
 -                    103                                   C                  -
 -                    104                                   C                  -
 -                    105                                   C                  -
 -                    106                                   C                  -
 -                    107                                   C                  -
 -                    108                                   C                  -
 -                    109                                   C                  -
 -                    110                                   C                  -
 -                    111                                   C                  -
 -                    112                                   C                  -
 -------------------------------------------------------------------------------

 *******************************************************************************
 *******************************************************************************
 **                                                                           **
 **     #####                         ##              ##                      **
 **    ##   ##            ##          ##              ##                      **
 **   ##     ##                       ##            ######                    **
 **   ##     ##  ##   ##  ##   #####  ##  ##   ####   ##    #####    #####    **
 **   ##     ##  ##   ##  ##  ##      ## ##   ##      ##   ##   ##  ##   ##   **
 **   ##  ## ##  ##   ##  ##  ##      ####     ###    ##   ######   ######    **
 **    ##  ###   ##   ##  ##  ##      ## ##      ##   ##   ##       ##        **
 **     #######   #####   ##   #####  ##  ##  ####    ##    #####   ##        **
 **           ##                                                    ##        **
 **                                                                           **
 **                                                ... make the atoms dance   **
 **                                                                           **
 **            Copyright (C) by CP2K developers group (2000 - 2018)           **
 **                                                                           **
 *******************************************************************************


 TOTAL NUMBERS AND MAXIMUM NUMBERS

  Total number of            - Atomic kinds:                                   1
                             - Atoms:                                        112
                             - Shell sets:                                   112
                             - Shells:                                       560
                             - Primitive Cartesian functions:                560
                             - Cartesian basis functions:                   1568
                             - Spherical basis functions:                   1456

  Maximum angular momentum of- Orbital basis functions:                        2
                             - Local part of the GTH pseudopotential:          2
                             - Non-local part of the GTH pseudopotential:      0


 SCF PARAMETERS         Density guess:                                    ATOMIC
                        --------------------------------------------------------
                        max_scf:                                             400
                        max_scf_history:                                       0
                        max_diis:                                              4
                        --------------------------------------------------------
                        eps_scf:                                        3.00E-07
                        eps_scf_history:                                0.00E+00
                        eps_diis:                                       1.00E-01
                        eps_eigval:                                     1.00E-05
                        --------------------------------------------------------
                        level_shift [a.u.]:                                 0.00
                        added MOs                                       100  100
                        --------------------------------------------------------
                        Mixing method:                            BROYDEN_MIXING
                                                charge density mixing in g-space
                        --------------------------------------------------------
                        Smear method:                                FERMI_DIRAC
                        Electronic temperature [K]:                        300.0
                        Electronic temperature [a.u.]:                  9.50E-04
                        Accuracy threshold:                             1.00E-10
                        --------------------------------------------------------
                        Outer loop SCF in use 
                        No variables optimised in outer loop
                        eps_scf                                         1.00E-06
                        max_scf                                              100
                        DIIS optimization
                        DIIS buffer length                                     3
                        step_size                                       5.00E-01

 Spin 1

 Number of electrons:                                                        224
 Number of occupied orbitals:                                                224
 Number of molecular orbitals:                                               324

 Spin 2

 Number of electrons:                                                        224
 Number of occupied orbitals:                                                224
 Number of molecular orbitals:                                               324

 Number of orbital functions:                                               1456
 Number of independent orbital functions:                                   1456

 Extrapolation method: initial_guess


 SCF WAVEFUNCTION OPTIMIZATION

  Step     Update method      Time    Convergence         Total energy    Change
  ------------------------------------------------------------------------------
     1 NoMix/Diag. 0.10E+00    2.7     0.45131248      -627.8926975268 -6.28E+02
     2 Broy./Diag. 0.10E+00    5.1     0.08614265      -603.5106157260  2.44E+01
     3 Broy./Diag. 0.10E+00    5.6     0.13634700      -612.0300453973 -8.52E+00
     4 Broy./Diag. 0.10E+00    5.6     7.44361018      -625.7649932678 -1.37E+01
     5 Broy./Diag. 0.10E+00    5.5     7.44356965      -607.4243106701  1.83E+01
     6 Broy./Diag. 0.10E+00    5.9     0.42291860      -629.8082373170 -2.24E+01
     7 Broy./Diag. 0.10E+00    5.4     0.14390238      -630.8803955662 -1.07E+00
     8 Broy./Diag. 0.10E+00    6.5     7.60663438      -631.3389361823 -4.59E-01
     9 Broy./Diag. 0.10E+00    5.3     7.60663188      -586.2429948666  4.51E+01
    10 Broy./Diag. 0.10E+00    7.0     7.58840455      -631.4503849681 -4.52E+01
    11 Broy./Diag. 0.10E+00    5.4     7.58840246      -557.2568050696  7.42E+01
    12 Broy./Diag. 0.10E+00    7.0     7.61165022      -631.6120593911 -7.44E+01
    13 Broy./Diag. 0.10E+00    5.9     7.61164756      -562.0642590746  6.95E+01
    14 Broy./Diag. 0.10E+00    6.4     0.12007841      -631.7812570786 -6.97E+01
    15 Broy./Diag. 0.10E+00    6.6     0.09705685      -631.5647949048  2.16E-01
    16 Broy./Diag. 0.10E+00    5.7     7.55374151      -631.8936732587 -3.29E-01
    17 Broy./Diag. 0.10E+00    6.9     7.55432662      -587.0252501773  4.49E+01
    18 Broy./Diag. 0.10E+00    5.5     7.47747066      -631.8946758671 -4.49E+01
    19 Broy./Diag. 0.10E+00    6.9     7.48013269      -609.4264420477  2.25E+01
    20 Broy./Diag. 0.10E+00    5.9     7.64092300      -631.9224335637 -2.25E+01
    21 Broy./Diag. 0.10E+00    6.2     7.64092097      -608.7407016349  2.32E+01
    22 Broy./Diag. 0.10E+00    6.6     0.06062091      -631.8622959965 -2.31E+01
    23 Broy./Diag. 0.10E+00    5.5     0.03328772      -631.9553010875 -9.30E-02
    24 Broy./Diag. 0.10E+00    6.9     0.01017072      -631.9581037984 -2.80E-03
    25 Broy./Diag. 0.10E+00    5.4     0.02331474      -631.9514240624  6.68E-03
    26 Broy./Diag. 0.10E+00    6.9     0.01787553      -631.9964568293 -4.50E-02
    27 Broy./Diag. 0.10E+00    6.0     0.01143683      -632.1729650183 -1.77E-01
    28 Broy./Diag. 0.10E+00    6.3     0.02232445      -632.2175595552 -4.46E-02
    29 Broy./Diag. 0.10E+00    6.8     0.01399358      -632.2370154161 -1.95E-02
    30 Broy./Diag. 0.10E+00    5.4     0.02218161      -632.2544917436 -1.75E-02
    31 Broy./Diag. 0.10E+00    7.0     0.03222626      -632.2864450668 -3.20E-02
    32 Broy./Diag. 0.10E+00    5.3     0.02414644      -632.3298255695 -4.34E-02
    33 Broy./Diag. 0.10E+00    6.8     0.01137142      -632.3951555353 -6.53E-02
    34 Broy./Diag. 0.10E+00    6.0     0.01193711      -632.4252972799 -3.01E-02
    35 Broy./Diag. 0.10E+00    6.3     0.01088697      -632.4428600321 -1.76E-02
    36 Broy./Diag. 0.10E+00    6.8     0.00510447      -632.4630089871 -2.01E-02
    37 Broy./Diag. 0.10E+00    5.6     0.01295513      -632.4750201808 -1.20E-02
    38 Broy./Diag. 0.10E+00    6.9     0.01613488      -632.4818077083 -6.79E-03
    39 Broy./Diag. 0.10E+00    5.3     0.00912926      -632.4944024545 -1.26E-02
    40 Broy./Diag. 0.10E+00    6.9     0.00902620      -632.5045228801 -1.01E-02
    41 Broy./Diag. 0.10E+00    6.3     0.00495564      -632.5088834519 -4.36E-03
    42 Broy./Diag. 0.10E+00    6.3     0.00665176      -632.5245916663 -1.57E-02
    43 Broy./Diag. 0.10E+00    6.9     0.00728541      -632.5361124577 -1.15E-02
    44 Broy./Diag. 0.10E+00    5.4     0.00347366      -632.5442735570 -8.16E-03
    45 Broy./Diag. 0.10E+00    7.1     0.00834740      -632.5530020811 -8.73E-03
    46 Broy./Diag. 0.10E+00    5.7     0.00911856      -632.5563136045 -3.31E-03
    47 Broy./Diag. 0.10E+00    6.6     0.00602714      -632.5521424825  4.17E-03
    48 Broy./Diag. 0.10E+00    6.4     0.00856611      -632.5561628391 -4.02E-03
    49 Broy./Diag. 0.10E+00    6.1     0.00458677      -632.5558719369  2.91E-04
    50 Broy./Diag. 0.10E+00    6.9     0.00399871      -632.5503464593  5.53E-03
    51 Broy./Diag. 0.10E+00    5.4     0.00256046      -632.5467314345  3.62E-03
    52 Broy./Diag. 0.10E+00    7.2     0.00488045      -632.5433353149  3.40E-03
    53 Broy./Diag. 0.10E+00    5.6     0.00304793      -632.5366866899  6.65E-03
    54 Broy./Diag. 0.10E+00    6.6     0.00384921      -632.5391156152 -2.43E-03
    55 Broy./Diag. 0.10E+00    6.4     0.00137789      -632.5393072369 -1.92E-04
    56 Broy./Diag. 0.10E+00    6.1     0.00190461      -632.5380026813  1.30E-03
    57 Broy./Diag. 0.10E+00    7.0     0.00263565      -632.5440112569 -6.01E-03
    58 Broy./Diag. 0.10E+00    5.3     0.00144548      -632.5413111865  2.70E-03
    59 Broy./Diag. 0.10E+00    7.2     0.00098295      -632.5437728726 -2.46E-03
    60 Broy./Diag. 0.10E+00    5.5     0.00127401      -632.5467313589 -2.96E-03
    61 Broy./Diag. 0.10E+00    6.7     0.00081506      -632.5500664324 -3.34E-03
    62 Broy./Diag. 0.10E+00    6.3     0.00052805      -632.5516583147 -1.59E-03
    63 Broy./Diag. 0.10E+00    6.4     0.00049659      -632.5528848042 -1.23E-03
    64 Broy./Diag. 0.10E+00    7.0     0.00050765      -632.5539019291 -1.02E-03
    65 Broy./Diag. 0.10E+00    5.4     0.00068069      -632.5581081931 -4.21E-03
    66 Broy./Diag. 0.10E+00    7.1     0.00034470      -632.5600510332 -1.94E-03
    67 Broy./Diag. 0.10E+00    5.4     0.00040329      -632.5621031007 -2.05E-03
    68 Broy./Diag. 0.10E+00    6.9     0.00024543      -632.5628619270 -7.59E-04
    69 Broy./Diag. 0.10E+00    6.2     0.00022418      -632.5628976095 -3.57E-05
    70 Broy./Diag. 0.10E+00    6.4     0.00029552      -632.5631124645 -2.15E-04
    71 Broy./Diag. 0.10E+00    7.0     0.00028884      -632.5637651964 -6.53E-04
    72 Broy./Diag. 0.10E+00    5.4     0.00014561      -632.5642161367 -4.51E-04
    73 Broy./Diag. 0.10E+00    7.1     0.00036008      -632.5636556900  5.60E-04
    74 Broy./Diag. 0.10E+00    5.3     0.00041845      -632.5635936794  6.20E-05
    75 Broy./Diag. 0.10E+00    7.0     0.00011651      -632.5638135648 -2.20E-04
    76 Broy./Diag. 0.10E+00    6.1     0.00025312      -632.5644581478 -6.45E-04
    77 Broy./Diag. 0.10E+00    6.5     0.00015917      -632.5655362970 -1.08E-03
    78 Broy./Diag. 0.10E+00    7.0     0.00010105      -632.5662606533 -7.24E-04
    79 Broy./Diag. 0.10E+00    5.4     0.00005608      -632.5672337187 -9.73E-04
    80 Broy./Diag. 0.10E+00    7.1     0.00003003      -632.5682342478 -1.00E-03
    81 Broy./Diag. 0.10E+00    5.6     0.00005707      -632.5685086939 -2.74E-04
    82 Broy./Diag. 0.10E+00    6.7     0.00004308      -632.5689716310 -4.63E-04
    83 Broy./Diag. 0.10E+00    6.3     0.00002457      -632.5692614618 -2.90E-04
    84 Broy./Diag. 0.10E+00    6.3     0.00003794      -632.5694854327 -2.24E-04
    85 Broy./Diag. 0.10E+00    7.0     0.00001806      -632.5696978644 -2.12E-04
    86 Broy./Diag. 0.10E+00    5.3     0.00001230      -632.5697392686 -4.14E-05
    87 Broy./Diag. 0.10E+00    7.2     0.00001094      -632.5696192815  1.20E-04
    88 Broy./Diag. 0.10E+00    5.4     0.00001212      -632.5695473904  7.19E-05
    89 Broy./Diag. 0.10E+00    6.9     0.00000857      -632.5695034357  4.40E-05
    90 Broy./Diag. 0.10E+00    6.0     0.00001082      -632.5694380230  6.54E-05
    91 Broy./Diag. 0.10E+00    6.6     0.00000640      -632.5693511704  8.69E-05
    92 Broy./Diag. 0.10E+00    6.8     0.00000641      -632.5692889053  6.23E-05
    93 Broy./Diag. 0.10E+00    5.6     0.00000718      -632.5692869394  1.97E-06
    94 Broy./Diag. 0.10E+00    7.0     0.00000928      -632.5693142983 -2.74E-05
    95 Broy./Diag. 0.10E+00    5.5     0.00000801      -632.5693618409 -4.75E-05
    96 Broy./Diag. 0.10E+00    6.9     0.00000994      -632.5694376653 -7.58E-05
    97 Broy./Diag. 0.10E+00    5.4     0.00001141      -632.5695291651 -9.15E-05
    98 Broy./Diag. 0.10E+00    6.5     0.00000411      -632.5695989550 -6.98E-05
    99 Broy./Diag. 0.10E+00    6.2     0.00000706      -632.5696201264 -2.12E-05
   100 Broy./Diag. 0.10E+00    7.0     0.00000478      -632.5696344713 -1.43E-05
   101 Broy./Diag. 0.10E+00    5.3     0.00000507      -632.5696482975 -1.38E-05
   102 Broy./Diag. 0.10E+00    7.2     0.00000711      -632.5696629155 -1.46E-05
   103 Broy./Diag. 0.10E+00    5.9     0.00000633      -632.5696822655 -1.94E-05
   104 Broy./Diag. 0.10E+00    6.5     0.00000360      -632.5696963543 -1.41E-05
   105 Broy./Diag. 0.10E+00    6.5     0.00000458      -632.5697129635 -1.66E-05
   106 Broy./Diag. 0.10E+00    6.0     0.00000366      -632.5697299661 -1.70E-05
   107 Broy./Diag. 0.10E+00    7.1     0.00000395      -632.5697448223 -1.49E-05
   108 Broy./Diag. 0.10E+00    5.4     0.00000380      -632.5697548537 -1.00E-05
   109 Broy./Diag. 0.10E+00    7.1     0.00000185      -632.5697478079  7.05E-06
   110 Broy./Diag. 0.10E+00    5.8     0.00000267      -632.5697518299 -4.02E-06
   111 Broy./Diag. 0.10E+00    6.6     0.00000580      -632.5697493947  2.44E-06
   112 Broy./Diag. 0.10E+00    6.6     0.00000668      -632.5697422900  7.10E-06
   113 Broy./Diag. 0.10E+00    5.9     0.00000303      -632.5697341661  8.12E-06
   114 Broy./Diag. 0.10E+00    7.1     0.00000408      -632.5697309660  3.20E-06
   115 Broy./Diag. 0.10E+00    5.3     0.00000323      -632.5697278530  3.11E-06
   116 Broy./Diag. 0.10E+00    7.1     0.00000398      -632.5697252320  2.62E-06
   117 Broy./Diag. 0.10E+00    5.8     0.00000348      -632.5697237858  1.45E-06
   118 Broy./Diag. 0.10E+00    6.5     0.00001157      -632.5697255529 -1.77E-06
   119 Broy./Diag. 0.10E+00    6.5     0.00001074      -632.5697260677 -5.15E-07
   120 Broy./Diag. 0.10E+00    5.8     0.00000412      -632.5697251489  9.19E-07
   121 Broy./Diag. 0.10E+00    7.1     0.00000347      -632.5697257987 -6.50E-07
   122 Broy./Diag. 0.10E+00    5.3     0.00000511      -632.5697259421 -1.43E-07
   123 Broy./Diag. 0.10E+00    7.2     0.00000331      -632.5697273231 -1.38E-06
   124 Broy./Diag. 0.10E+00    5.7     0.00000516      -632.5697278479 -5.25E-07
   125 Broy./Diag. 0.10E+00    6.6     0.00000212      -632.5697281827 -3.35E-07
   126 Broy./Diag. 0.10E+00    6.4     0.00000377      -632.5697300218 -1.84E-06
   127 Broy./Diag. 0.10E+00    6.0     0.00000535      -632.5697313821 -1.36E-06
   128 Broy./Diag. 0.10E+00    7.1     0.00000325      -632.5697317258 -3.44E-07
   129 Broy./Diag. 0.10E+00    5.3     0.00000216      -632.5697322843 -5.59E-07
   130 Broy./Diag. 0.10E+00    7.0     0.00000417      -632.5697331002 -8.16E-07
   131 Broy./Diag. 0.10E+00    5.7     0.00000443      -632.5697338245 -7.24E-07
   132 Broy./Diag. 0.10E+00    6.6     0.00000548      -632.5697331555  6.69E-07
   133 Broy./Diag. 0.10E+00    6.4     0.00000515      -632.5697336862 -5.31E-07
   134 Broy./Diag. 0.10E+00    6.0     0.00000285      -632.5697345855 -8.99E-07
   135 Broy./Diag. 0.10E+00    7.0     0.00000493      -632.5697348747 -2.89E-07
   136 Broy./Diag. 0.10E+00    5.3     0.00000245      -632.5697349879 -1.13E-07
   137 Broy./Diag. 0.10E+00    7.2     0.00000532      -632.5697349229  6.50E-08
   138 Broy./Diag. 0.10E+00    5.8     0.00000390      -632.5697353600 -4.37E-07
   139 Broy./Diag. 0.10E+00    6.5     0.00000132      -632.5697358755 -5.15E-07
   140 Broy./Diag. 0.10E+00    6.4     0.00000179      -632.5697350549  8.21E-07
   141 Broy./Diag. 0.10E+00    6.0     0.00000230      -632.5697347877  2.67E-07
   142 Broy./Diag. 0.10E+00    7.1     0.00000188      -632.5697353622 -5.74E-07
   143 Broy./Diag. 0.10E+00    5.4     0.00000104      -632.5697356364 -2.74E-07
   144 Broy./Diag. 0.10E+00    7.2     0.00000120      -632.5697354317  2.05E-07
   145 Broy./Diag. 0.10E+00    5.8     0.00000085      -632.5697356864 -2.55E-07
   146 Broy./Diag. 0.10E+00    6.6     0.00000146      -632.5697361046 -4.18E-07
   147 Broy./Diag. 0.10E+00    6.4     0.00000208      -632.5697362990 -1.94E-07
   148 Broy./Diag. 0.10E+00    5.9     0.00000092      -632.5697364307 -1.32E-07
   149 Broy./Diag. 0.10E+00    7.0     0.00000205      -632.5697363678  6.29E-08
   150 Broy./Diag. 0.10E+00    5.4     0.00000140      -632.5697366386 -2.71E-07
   151 Broy./Diag. 0.10E+00    7.1     0.00000308      -632.5697364623  1.76E-07
   152 Broy./Diag. 0.10E+00    5.7     0.00000124      -632.5697368287 -3.66E-07
   153 Broy./Diag. 0.10E+00    6.5     0.00000144      -632.5697367882  4.05E-08
   154 Broy./Diag. 0.10E+00    6.5     0.00000192      -632.5697367822  6.00E-09
   155 Broy./Diag. 0.10E+00    6.0     0.00000109      -632.5697366073  1.75E-07
   156 Broy./Diag. 0.10E+00    7.1     0.00000365      -632.5697367214 -1.14E-07
   157 Broy./Diag. 0.10E+00    5.4     0.00000283      -632.5697369325 -2.11E-07
   158 Broy./Diag. 0.10E+00    7.1     0.00000200      -632.5697368323  1.00E-07
   159 Broy./Diag. 0.10E+00    5.8     0.00000185      -632.5697368664 -3.41E-08
   160 Broy./Diag. 0.10E+00    6.6     0.00000105      -632.5697368328  3.36E-08
   161 Broy./Diag. 0.10E+00    6.4     0.00000118      -632.5697369493 -1.17E-07
   162 Broy./Diag. 0.10E+00    6.0     0.00000111      -632.5697372366 -2.87E-07
   163 Broy./Diag. 0.10E+00    7.1     0.00000232      -632.5697369539  2.83E-07
   164 Broy./Diag. 0.10E+00    5.3     0.00000079      -632.5697374499 -4.96E-07
   165 Broy./Diag. 0.10E+00    7.1     0.00000209      -632.5697375375 -8.76E-08
   166 Broy./Diag. 0.10E+00    5.8     0.00000119      -632.5697377015 -1.64E-07
   167 Broy./Diag. 0.10E+00    6.6     0.00000050      -632.5697375556  1.46E-07
   168 Broy./Diag. 0.10E+00    6.5     0.00000103      -632.5697375673 -1.17E-08
   169 Broy./Diag. 0.10E+00    6.0     0.00000135      -632.5697375261  4.12E-08
   170 Broy./Diag. 0.10E+00    7.0     0.00000120      -632.5697373644  1.62E-07
   171 Broy./Diag. 0.10E+00    5.3     0.00000166      -632.5697373813 -1.70E-08
   172 Broy./Diag. 0.10E+00    7.1     0.00000130      -632.5697372755  1.06E-07
   173 Broy./Diag. 0.10E+00    5.7     0.00000117      -632.5697373847 -1.09E-07
   174 Broy./Diag. 0.10E+00    6.6     0.00000099      -632.5697375734 -1.89E-07
   175 Broy./Diag. 0.10E+00    6.6     0.00000154      -632.5697372122  3.61E-07
   176 Broy./Diag. 0.10E+00    5.9     0.00000150      -632.5697372055  6.74E-09
   177 Broy./Diag. 0.10E+00    7.0     0.00000152      -632.5697373503 -1.45E-07
   178 Broy./Diag. 0.10E+00    5.4     0.00000125      -632.5697373163  3.40E-08
   179 Broy./Diag. 0.10E+00    7.1     0.00000158      -632.5697374613 -1.45E-07
   180 Broy./Diag. 0.10E+00    5.8     0.00000042      -632.5697376601 -1.99E-07
   181 Broy./Diag. 0.10E+00    6.4     0.00000139      -632.5697377142 -5.41E-08
   182 Broy./Diag. 0.10E+00    6.5     0.00000191      -632.5697378142 -1.00E-07
   183 Broy./Diag. 0.10E+00    5.9     0.00000355      -632.5697376082  2.06E-07
   184 Broy./Diag. 0.10E+00    7.1     0.00000137      -632.5697378892 -2.81E-07
   185 Broy./Diag. 0.10E+00    5.3     0.00000101      -632.5697378627  2.65E-08
   186 Broy./Diag. 0.10E+00    7.1     0.00000167      -632.5697377250  1.38E-07
   187 Broy./Diag. 0.10E+00    5.8     0.00000211      -632.5697377083  1.67E-08
   188 Broy./Diag. 0.10E+00    6.4     0.00000289      -632.5697377240 -1.58E-08
   189 Broy./Diag. 0.10E+00    6.6     0.00000365      -632.5697378398 -1.16E-07
   190 Broy./Diag. 0.10E+00    6.0     0.00000370      -632.5697376947  1.45E-07
   191 Broy./Diag. 0.10E+00    7.0     0.00000089      -632.5697376417  5.30E-08
   192 Broy./Diag. 0.10E+00    5.4     0.00000076      -632.5697375945  4.72E-08
   193 Broy./Diag. 0.10E+00    7.1     0.00000096      -632.5697376696 -7.50E-08
   194 Broy./Diag. 0.10E+00    5.8     0.00000292      -632.5697376605  9.08E-09
   195 Broy./Diag. 0.10E+00    6.6     0.00000067      -632.5697379343 -2.74E-07
   196 Broy./Diag. 0.10E+00    6.5     0.00000153      -632.5697379313  3.02E-09
   197 Broy./Diag. 0.10E+00    6.0     0.00000094      -632.5697377870  1.44E-07
   198 Broy./Diag. 0.10E+00    7.1     0.00000212      -632.5697378955 -1.09E-07
   199 Broy./Diag. 0.10E+00    5.3     0.00000248      -632.5697376398  2.56E-07
   200 Broy./Diag. 0.10E+00    7.1     0.00000253      -632.5697377440 -1.04E-07
   201 Broy./Diag. 0.10E+00    5.7     0.00000100      -632.5697379506 -2.07E-07
   202 Broy./Diag. 0.10E+00    6.6     0.00000222      -632.5697377507  2.00E-07
   203 Broy./Diag. 0.10E+00    6.5     0.00000148      -632.5697378918 -1.41E-07
   204 Broy./Diag. 0.10E+00    6.0     0.00000102      -632.5697378933 -1.45E-09
   205 Broy./Diag. 0.10E+00    7.1     0.00000091      -632.5697380113 -1.18E-07
   206 Broy./Diag. 0.10E+00    5.4     0.00000071      -632.5697379111  1.00E-07
   207 Broy./Diag. 0.10E+00    7.0     0.00000129      -632.5697377964  1.15E-07
   208 Broy./Diag. 0.10E+00    5.8     0.00000130      -632.5697379366 -1.40E-07
   209 Broy./Diag. 0.10E+00    6.6     0.00000170      -632.5697379394 -2.88E-09
   210 Broy./Diag. 0.10E+00    6.5     0.00000084      -632.5697378142  1.25E-07
   211 Broy./Diag. 0.10E+00    6.1     0.00000073      -632.5697379526 -1.38E-07
   212 Broy./Diag. 0.10E+00    7.1     0.00000044      -632.5697379715 -1.89E-08
   213 Broy./Diag. 0.10E+00    5.4     0.00000039      -632.5697379826 -1.11E-08
   214 Broy./Diag. 0.10E+00    7.2     0.00000040      -632.5697380134 -3.08E-08
   215 Broy./Diag. 0.10E+00    5.8     0.00000039      -632.5697379415  7.19E-08
   216 Broy./Diag. 0.10E+00    6.7     0.00000052      -632.5697379489 -7.41E-09
   217 Broy./Diag. 0.10E+00    6.4     0.00000087      -632.5697379406  8.33E-09
   218 Broy./Diag. 0.10E+00    5.9     0.00000089      -632.5697379907 -5.00E-08
   219 Broy./Diag. 0.10E+00    7.1     0.00000104      -632.5697379681  2.25E-08
   220 Broy./Diag. 0.10E+00    5.4     0.00000055      -632.5697379567  1.15E-08
   221 Broy./Diag. 0.10E+00    7.1     0.00000111      -632.5697379536  3.07E-09
   222 Broy./Diag. 0.10E+00    5.9     0.00000067      -632.5697380142 -6.06E-08
   223 Broy./Diag. 0.10E+00    6.6     0.00000353      -632.5697381571 -1.43E-07
   224 Broy./Diag. 0.10E+00    6.4     0.00000444      -632.5697383854 -2.28E-07
   225 Broy./Diag. 0.10E+00    5.9     0.00000015      -632.5697380837  3.02E-07

  *** SCF run converged in   225 steps ***


  Electronic density on regular grids:       -447.9999999999        0.0000000001
  Core density on regular grids:              447.9999999996       -0.0000000004
  Total charge density on r-space grids:       -0.0000000003
  Total charge density g-space grids:          -0.0000000003

  Overlap energy of the core charge distribution:               0.00001865557362
  Self energy of the core charge distribution:              -1493.52088779770361
  Core Hamiltonian energy:                                    466.88890810458525
  Hartree energy:                                             585.25214307346187
  Exchange-correlation energy:                               -190.96252876595770
  Dispersion energy:                                           -0.22075422073812
  Electronic entropic energy:                                  -0.00663713296498
  Fermi energy:                                                -0.14641545726803

  Total energy:                                              -632.56973808374414

  outer SCF iter =    1 RMS gradient =   0.15E-06 energy =       -632.5697380837
  outer SCF loop converged in   1 iterations or  225 steps


  Integrated absolute spin density  :                               0.0002229311
  WARNING: S**2 computation does not yet treat fractional occupied orbitals

 *** WARNING in qs_loc_utils.F:1387 :: User requested the calculation of ***
 *** the localized wavefunction but the section LOCALIZE was not         ***
 *** specified. Localization will not be performed!                      ***


 -------------------------------------------------------------------------------
 -                                                                             -
 -  BSSE CALCULATION         FRAGMENT CONF: 01        FRAGMENT SUBCONF: 01     -
 -                           CHARGE =     0           MULTIPLICITY =     0     -
 -                                                                             -
 -                 ATOM INDEX                              ATOM NAME           -
 -                 ----------                              ---------           -
 -                    113                                   Na                 -
 -------------------------------------------------------------------------------

 *******************************************************************************
 *******************************************************************************
 **                                                                           **
 **     #####                         ##              ##                      **
 **    ##   ##            ##          ##              ##                      **
 **   ##     ##                       ##            ######                    **
 **   ##     ##  ##   ##  ##   #####  ##  ##   ####   ##    #####    #####    **
 **   ##     ##  ##   ##  ##  ##      ## ##   ##      ##   ##   ##  ##   ##   **
 **   ##  ## ##  ##   ##  ##  ##      ####     ###    ##   ######   ######    **
 **    ##  ###   ##   ##  ##  ##      ## ##      ##   ##   ##       ##        **
 **     #######   #####   ##   #####  ##  ##  ####    ##    #####   ##        **
 **           ##                                                    ##        **
 **                                                                           **
 **                                                ... make the atoms dance   **
 **                                                                           **
 **            Copyright (C) by CP2K developers group (2000 - 2018)           **
 **                                                                           **
 *******************************************************************************

 *** WARNING in qs_environment.F:1128 :: More added MOs requested for beta ***
 *** spin than available.                                                  ***


 *** WARNING in qs_environment.F:1142 :: More added MOs requested than ***
 *** available. The full set of unoccupied MOs will be used.           ***



 TOTAL NUMBERS AND MAXIMUM NUMBERS

  Total number of            - Atomic kinds:                                   1
                             - Atoms:                                          1
                             - Shell sets:                                     1
                             - Shells:                                         5
                             - Primitive Cartesian functions:                  7
                             - Cartesian basis functions:                      9
                             - Spherical basis functions:                      9

  Maximum angular momentum of- Orbital basis functions:                        1
                             - Local part of the GTH pseudopotential:          2
                             - Non-local part of the GTH pseudopotential:      1


 SCF PARAMETERS         Density guess:                                    ATOMIC
                        --------------------------------------------------------
                        max_scf:                                             400
                        max_scf_history:                                       0
                        max_diis:                                              4
                        --------------------------------------------------------
                        eps_scf:                                        3.00E-07
                        eps_scf_history:                                0.00E+00
                        eps_diis:                                       1.00E-01
                        eps_eigval:                                     1.00E-05
                        --------------------------------------------------------
                        level_shift [a.u.]:                                 0.00
                        added MOs                                         4    5
                        --------------------------------------------------------
                        Mixing method:                            BROYDEN_MIXING
                                                charge density mixing in g-space
                        --------------------------------------------------------
                        Smear method:                                FERMI_DIRAC
                        Electronic temperature [K]:                        300.0
                        Electronic temperature [a.u.]:                  9.50E-04
                        Accuracy threshold:                             1.00E-10
                        --------------------------------------------------------
                        Outer loop SCF in use 
                        No variables optimised in outer loop
                        eps_scf                                         1.00E-06
                        max_scf                                              100
                        DIIS optimization
                        DIIS buffer length                                     3
                        step_size                                       5.00E-01

 Spin 1

 Number of electrons:                                                          5
 Number of occupied orbitals:                                                  5
 Number of molecular orbitals:                                                 9

 Spin 2

 Number of electrons:                                                          4
 Number of occupied orbitals:                                                  4
 Number of molecular orbitals:                                                 9

 Number of orbital functions:                                                  9
 Number of independent orbital functions:                                      9

 Extrapolation method: initial_guess


 SCF WAVEFUNCTION OPTIMIZATION

  Step     Update method      Time    Convergence         Total energy    Change
  ------------------------------------------------------------------------------
     1 NoMix/Diag. 0.10E+00    1.9     0.36437646       -47.1638767315 -4.72E+01
     2 Broy./Diag. 0.10E+00    3.2     0.01267982       -47.1375564226  2.63E-02
     3 Broy./Diag. 0.10E+00    3.1     0.06966604       -47.1603891121 -2.28E-02
     4 Broy./Diag. 0.10E+00    4.2     0.00077650       -47.1440563854  1.63E-02
     5 Broy./Diag. 0.10E+00    4.2     0.00352703       -47.1548913654 -1.08E-02
     6 Broy./Diag. 0.10E+00    3.2     0.00108354       -47.1517846292  3.11E-03
     7 Broy./Diag. 0.10E+00    4.2     0.01125712       -47.1535378493 -1.75E-03
     8 Broy./Diag. 0.10E+00    4.6     0.00350608       -47.1607589306 -7.22E-03
     9 Broy./Diag. 0.10E+00    3.7     0.00396671       -47.1600136212  7.45E-04
    10 Broy./Diag. 0.10E+00    4.5     0.00350028       -47.1623395993 -2.33E-03
    11 Broy./Diag. 0.10E+00    5.0     0.00202168       -47.1649796068 -2.64E-03
    12 Broy./Diag. 0.10E+00    3.9     0.00172756       -47.1631829929  1.80E-03
    13 Broy./Diag. 0.10E+00    4.9     0.00069782       -47.1714130840 -8.23E-03
    14 Broy./Diag. 0.10E+00    4.9     0.00105788       -47.1699161048  1.50E-03
    15 Broy./Diag. 0.10E+00    3.7     0.00049104       -47.1684191991  1.50E-03
    16 Broy./Diag. 0.10E+00    5.4     0.00014008       -47.1728704527 -4.45E-03
    17 Broy./Diag. 0.10E+00    4.4     0.00058378       -47.1700159053  2.85E-03
    18 Broy./Diag. 0.10E+00    3.8     0.00022687       -47.1635513247  6.46E-03
    19 Broy./Diag. 0.10E+00    5.4     0.00024910       -47.1586608119  4.89E-03
    20 Broy./Diag. 0.10E+00    4.1     0.00008907       -47.1571355553  1.53E-03
    21 Broy./Diag. 0.10E+00    4.3     0.00019621       -47.1572213210 -8.58E-05
    22 Broy./Diag. 0.10E+00    5.2     0.00013379       -47.1564259950  7.95E-04
    23 Broy./Diag. 0.10E+00    4.1     0.00067075       -47.1499205603  6.51E-03
    24 Broy./Diag. 0.10E+00    4.6     0.00048576       -47.1528569073 -2.94E-03
    25 Broy./Diag. 0.10E+00    5.0     0.00019934       -47.1517016207  1.16E-03
    26 Broy./Diag. 0.10E+00    3.9     0.00016674       -47.1574019648 -5.70E-03
    27 Broy./Diag. 0.10E+00    4.6     0.00021500       -47.1591147757 -1.71E-03
    28 Broy./Diag. 0.10E+00    5.0     0.00011444       -47.1559257449  3.19E-03
    29 Broy./Diag. 0.10E+00    3.8     0.00011751       -47.1563346998 -4.09E-04
    30 Broy./Diag. 0.10E+00    4.9     0.00004480       -47.1557837708  5.51E-04
    31 Broy./Diag. 0.10E+00    4.7     0.00017604       -47.1557952593 -1.15E-05
    32 Broy./Diag. 0.10E+00    3.9     0.00015328       -47.1552541570  5.41E-04
    33 Broy./Diag. 0.10E+00    5.2     0.00002085       -47.1549638190  2.90E-04
    34 Broy./Diag. 0.10E+00    4.6     0.00009225       -47.1548364111  1.27E-04
    35 Broy./Diag. 0.10E+00    3.8     0.00002468       -47.1546974470  1.39E-04
    36 Broy./Diag. 0.10E+00    5.5     0.00005534       -47.1546357444  6.17E-05
    37 Broy./Diag. 0.10E+00    4.1     0.00001784       -47.1547984698 -1.63E-04
    38 Broy./Diag. 0.10E+00    4.1     0.00001561       -47.1546048540  1.94E-04
    39 Broy./Diag. 0.10E+00    5.2     0.00003674       -47.1546300899 -2.52E-05
    40 Broy./Diag. 0.10E+00    4.1     0.00001011       -47.1547263306 -9.62E-05
    41 Broy./Diag. 0.10E+00    4.6     0.00001400       -47.1546254452  1.01E-04
    42 Broy./Diag. 0.10E+00    4.8     0.00000540       -47.1545870470  3.84E-05
    43 Broy./Diag. 0.10E+00    4.1     0.00002329       -47.1545710256  1.60E-05
    44 Broy./Diag. 0.10E+00    4.6     0.00000310       -47.1545740988 -3.07E-06
    45 Broy./Diag. 0.10E+00    5.0     0.00000738       -47.1545638011  1.03E-05
    46 Broy./Diag. 0.10E+00    3.8     0.00001378       -47.1545349347  2.89E-05
    47 Broy./Diag. 0.10E+00    4.8     0.00001214       -47.1544722724  6.27E-05
    48 Broy./Diag. 0.10E+00    4.9     0.00000408       -47.1544221756  5.01E-05
    49 Broy./Diag. 0.10E+00    3.9     0.00002426       -47.1545038369 -8.17E-05
    50 Broy./Diag. 0.10E+00    5.1     0.00001503       -47.1545390475 -3.52E-05
    51 Broy./Diag. 0.10E+00    4.6     0.00000339       -47.1545504716 -1.14E-05
    52 Broy./Diag. 0.10E+00    3.9     0.00000507       -47.1545208718  2.96E-05
    53 Broy./Diag. 0.10E+00    5.4     0.00000524       -47.1545023410  1.85E-05
    54 Broy./Diag. 0.10E+00    4.1     0.00001694       -47.1544896936  1.26E-05
    55 Broy./Diag. 0.10E+00    4.2     0.00000252       -47.1545047467 -1.51E-05
    56 Broy./Diag. 0.10E+00    5.1     0.00000502       -47.1545407363 -3.60E-05
    57 Broy./Diag. 0.10E+00    4.0     0.00000897       -47.1545301688  1.06E-05
    58 Broy./Diag. 0.10E+00    4.5     0.00000366       -47.1545061262  2.40E-05
    59 Broy./Diag. 0.10E+00    5.0     0.00000093       -47.1544778402  2.83E-05
    60 Broy./Diag. 0.10E+00    3.8     0.00000160       -47.1544615032  1.63E-05
    61 Broy./Diag. 0.10E+00    4.5     0.00000126       -47.1544731797 -1.17E-05
    62 Broy./Diag. 0.10E+00    5.0     0.00000382       -47.1545060201 -3.28E-05
    63 Broy./Diag. 0.10E+00    3.8     0.00000317       -47.1545039073  2.11E-06
    64 Broy./Diag. 0.10E+00    4.7     0.00000347       -47.1544832975  2.06E-05
    65 Broy./Diag. 0.10E+00    4.9     0.00000181       -47.1544766578  6.64E-06
    66 Broy./Diag. 0.10E+00    3.7     0.00000499       -47.1544723724  4.29E-06
    67 Broy./Diag. 0.10E+00    5.1     0.00000630       -47.1544488345  2.35E-05
    68 Broy./Diag. 0.10E+00    4.7     0.00000169       -47.1544652011 -1.64E-05
    69 Broy./Diag. 0.10E+00    3.6     0.00000179       -47.1544721494 -6.95E-06
    70 Broy./Diag. 0.10E+00    5.3     0.00000108       -47.1544768565 -4.71E-06
    71 Broy./Diag. 0.10E+00    4.4     0.00000038       -47.1544726931  4.16E-06
    72 Broy./Diag. 0.10E+00    3.8     0.00000131       -47.1544755599 -2.87E-06
    73 Broy./Diag. 0.10E+00    5.4     0.00000115       -47.1544751394  4.21E-07
    74 Broy./Diag. 0.10E+00    4.1     0.00000042       -47.1544747172  4.22E-07
    75 Broy./Diag. 0.10E+00    3.9     0.00000019       -47.1544745636  1.54E-07

  *** SCF run converged in    75 steps ***


  Electronic density on regular grids:         -8.9999348723        0.0000651277
  Core density on regular grids:                9.0000000000       -0.0000000000
  Total charge density on r-space grids:        0.0000651277
  Total charge density g-space grids:           0.0000651277

  Overlap energy of the core charge distribution:               0.00000000000000
  Self energy of the core charge distribution:                -96.60649019442629
  Core Hamiltonian energy:                                     29.74601342676497
  Hartree energy:                                              26.75068751644003
  Exchange-correlation energy:                                 -7.04468400613646
  Dispersion energy:                                           -0.00000130538029
  Electronic entropic energy:                                  -0.00000000083306
  Fermi energy:                                                -0.08411633340146

  Total energy:                                               -47.15447456357249

  outer SCF iter =    1 RMS gradient =   0.19E-06 energy =        -47.1544745636
  outer SCF loop converged in   1 iterations or   75 steps


  Integrated absolute spin density  :                               1.0000136643
  WARNING: S**2 computation does not yet treat fractional occupied orbitals

 *** WARNING in qs_loc_utils.F:1387 :: User requested the calculation of ***
 *** the localized wavefunction but the section LOCALIZE was not         ***
 *** specified. Localization will not be performed!                      ***


 -------------------------------------------------------------------------------
 -                                                                             -
 -  BSSE CALCULATION         FRAGMENT CONF: 11        FRAGMENT SUBCONF: 10     -
 -                           CHARGE =     0           MULTIPLICITY =     0     -
 -                                                                             -
 -                 ATOM INDEX                              ATOM NAME           -
 -                 ----------                              ---------           -
 -                      1                                   C                  -
 -                      2                                   C                  -
 -                      3                                   C                  -
 -                      4                                   C                  -
 -                      5                                   C                  -
 -                      6                                   C                  -
 -                      7                                   C                  -
 -                      8                                   C                  -
 -                      9                                   C                  -
 -                     10                                   C                  -
 -                     11                                   C                  -
 -                     12                                   C                  -
 -                     13                                   C                  -
 -                     14                                   C                  -
 -                     15                                   C                  -
 -                     16                                   C                  -
 -                     17                                   C                  -
 -                     18                                   C                  -
 -                     19                                   C                  -
 -                     20                                   C                  -
 -                     21                                   C                  -
 -                     22                                   C                  -
 -                     23                                   C                  -
 -                     24                                   C                  -
 -                     25                                   C                  -
 -                     26                                   C                  -
 -                     27                                   C                  -
 -                     28                                   C                  -
 -                     29                                   C                  -
 -                     30                                   C                  -
 -                     31                                   C                  -
 -                     32                                   C                  -
 -                     33                                   C                  -
 -                     34                                   C                  -
 -                     35                                   C                  -
 -                     36                                   C                  -
 -                     37                                   C                  -
 -                     38                                   C                  -
 -                     39                                   C                  -
 -                     40                                   C                  -
 -                     41                                   C                  -
 -                     42                                   C                  -
 -                     43                                   C                  -
 -                     44                                   C                  -
 -                     45                                   C                  -
 -                     46                                   C                  -
 -                     47                                   C                  -
 -                     48                                   C                  -
 -                     49                                   C                  -
 -                     50                                   C                  -
 -                     51                                   C                  -
 -                     52                                   C                  -
 -                     53                                   C                  -
 -                     54                                   C                  -
 -                     55                                   C                  -
 -                     56                                   C                  -
 -                     57                                   C                  -
 -                     58                                   C                  -
 -                     59                                   C                  -
 -                     60                                   C                  -
 -                     61                                   C                  -
 -                     62                                   C                  -
 -                     63                                   C                  -
 -                     64                                   C                  -
 -                     65                                   C                  -
 -                     66                                   C                  -
 -                     67                                   C                  -
 -                     68                                   C                  -
 -                     69                                   C                  -
 -                     70                                   C                  -
 -                     71                                   C                  -
 -                     72                                   C                  -
 -                     73                                   C                  -
 -                     74                                   C                  -
 -                     75                                   C                  -
 -                     76                                   C                  -
 -                     77                                   C                  -
 -                     78                                   C                  -
 -                     79                                   C                  -
 -                     80                                   C                  -
 -                     81                                   C                  -
 -                     82                                   C                  -
 -                     83                                   C                  -
 -                     84                                   C                  -
 -                     85                                   C                  -
 -                     86                                   C                  -
 -                     87                                   C                  -
 -                     88                                   C                  -
 -                     89                                   C                  -
 -                     90                                   C                  -
 -                     91                                   C                  -
 -                     92                                   C                  -
 -                     93                                   C                  -
 -                     94                                   C                  -
 -                     95                                   C                  -
 -                     96                                   C                  -
 -                     97                                   C                  -
 -                     98                                   C                  -
 -                     99                                   C                  -
 -                    100                                   C                  -
 -                    101                                   C                  -
 -                    102                                   C                  -
 -                    103                                   C                  -
 -                    104                                   C                  -
 -                    105                                   C                  -
 -                    106                                   C                  -
 -                    107                                   C                  -
 -                    108                                   C                  -
 -                    109                                   C                  -
 -                    110                                   C                  -
 -                    111                                   C                  -
 -                    112                                   C                  -
 -                    113                                   Na_ghost           -
 -------------------------------------------------------------------------------

 *******************************************************************************
 *******************************************************************************
 **                                                                           **
 **     #####                         ##              ##                      **
 **    ##   ##            ##          ##              ##                      **
 **   ##     ##                       ##            ######                    **
 **   ##     ##  ##   ##  ##   #####  ##  ##   ####   ##    #####    #####    **
 **   ##     ##  ##   ##  ##  ##      ## ##   ##      ##   ##   ##  ##   ##   **
 **   ##  ## ##  ##   ##  ##  ##      ####     ###    ##   ######   ######    **
 **    ##  ###   ##   ##  ##  ##      ## ##      ##   ##   ##       ##        **
 **     #######   #####   ##   #####  ##  ##  ####    ##    #####   ##        **
 **           ##                                                    ##        **
 **                                                                           **
 **                                                ... make the atoms dance   **
 **                                                                           **
 **            Copyright (C) by CP2K developers group (2000 - 2018)           **
 **                                                                           **
 *******************************************************************************


 TOTAL NUMBERS AND MAXIMUM NUMBERS

  Total number of            - Atomic kinds:                                   2
                             - Atoms:                                        113
                             - Shell sets:                                   113
                             - Shells:                                       565
                             - Primitive Cartesian functions:                567
                             - Cartesian basis functions:                   1577
                             - Spherical basis functions:                   1465

  Maximum angular momentum of- Orbital basis functions:                        2
                             - Local part of the GTH pseudopotential:          2
                             - Non-local part of the GTH pseudopotential:      0


 SCF PARAMETERS         Density guess:                                    ATOMIC
                        --------------------------------------------------------
                        max_scf:                                             400
                        max_scf_history:                                       0
                        max_diis:                                              4
                        --------------------------------------------------------
                        eps_scf:                                        3.00E-07
                        eps_scf_history:                                0.00E+00
                        eps_diis:                                       1.00E-01
                        eps_eigval:                                     1.00E-05
                        --------------------------------------------------------
                        level_shift [a.u.]:                                 0.00
                        added MOs                                       100  100
                        --------------------------------------------------------
                        Mixing method:                            BROYDEN_MIXING
                                                charge density mixing in g-space
                        --------------------------------------------------------
                        Smear method:                                FERMI_DIRAC
                        Electronic temperature [K]:                        300.0
                        Electronic temperature [a.u.]:                  9.50E-04
                        Accuracy threshold:                             1.00E-10
                        --------------------------------------------------------
                        Outer loop SCF in use 
                        No variables optimised in outer loop
                        eps_scf                                         1.00E-06
                        max_scf                                              100
                        DIIS optimization
                        DIIS buffer length                                     3
                        step_size                                       5.00E-01

 Spin 1

 Number of electrons:                                                        224
 Number of occupied orbitals:                                                224
 Number of molecular orbitals:                                               324

 Spin 2

 Number of electrons:                                                        224
 Number of occupied orbitals:                                                224
 Number of molecular orbitals:                                               324

 Number of orbital functions:                                               1465
 Number of independent orbital functions:                                   1465

 Extrapolation method: initial_guess


 SCF WAVEFUNCTION OPTIMIZATION

  Step     Update method      Time    Convergence         Total energy    Change
  ------------------------------------------------------------------------------
     1 NoMix/Diag. 0.10E+00    3.3     0.45132263      -627.8926975268 -6.28E+02
     2 Broy./Diag. 0.10E+00    5.5     0.10405285      -603.5208882374  2.44E+01
     3 Broy./Diag. 0.10E+00    5.5     0.16288420      -611.3908776669 -7.87E+00
     4 Broy./Diag. 0.10E+00    5.6     7.57122463      -625.6319273883 -1.42E+01
     5 Broy./Diag. 0.10E+00    5.9     7.57118043      -607.0132277974  1.86E+01
     6 Broy./Diag. 0.10E+00    5.3     0.43197638      -629.9129809121 -2.29E+01
     7 Broy./Diag. 0.10E+00    6.4     0.11674761      -630.8959368566 -9.83E-01
     8 Broy./Diag. 0.10E+00    5.3     7.63678713      -631.3290377312 -4.33E-01
     9 Broy./Diag. 0.10E+00    6.8     7.64314628      -608.9383212388  2.24E+01
    10 Broy./Diag. 0.10E+00    5.5     7.58981776      -631.3826176147 -2.24E+01
    11 Broy./Diag. 0.10E+00    7.1     7.58984323      -540.3092330443  9.11E+01
    12 Broy./Diag. 0.10E+00    6.0     0.37965528      -630.5196211897 -9.02E+01
    13 Broy./Diag. 0.10E+00    6.3     7.60178596      -631.8610666462 -1.34E+00
    14 Broy./Diag. 0.10E+00    6.7     7.60178387      -562.7017645482  6.92E+01
    15 Broy./Diag. 0.10E+00    5.6     7.65193085      -631.9687317213 -6.93E+01
    16 Broy./Diag. 0.10E+00    7.1     7.65192756      -585.9348479870  4.60E+01
    17 Broy./Diag. 0.10E+00    5.5     0.14504594      -632.0974712449 -4.62E+01
    18 Broy./Diag. 0.10E+00    6.9     0.12260575      -631.5336425500  5.64E-01
    19 Broy./Diag. 0.10E+00    6.1     0.06057524      -632.0350368288 -5.01E-01
    20 Broy./Diag. 0.10E+00    6.5     0.04079173      -632.0421597547 -7.12E-03
    21 Broy./Diag. 0.10E+00    6.9     7.64308234      -632.0053824132  3.68E-02
    22 Broy./Diag. 0.10E+00    5.4     7.64307971      -608.8660269577  2.31E+01
    23 Broy./Diag. 0.10E+00    7.2     0.02212507      -632.0179179946 -2.32E+01
    24 Broy./Diag. 0.10E+00    5.7     0.01361470      -632.0937427005 -7.58E-02
    25 Broy./Diag. 0.10E+00    6.5     0.01243850      -632.1068006422 -1.31E-02
    26 Broy./Diag. 0.10E+00    6.5     0.00780368      -632.1512526356 -4.45E-02
    27 Broy./Diag. 0.10E+00    6.1     0.00772013      -632.1875549926 -3.63E-02
    28 Broy./Diag. 0.10E+00    7.0     0.01003183      -632.2533521226 -6.58E-02
    29 Broy./Diag. 0.10E+00    5.3     0.02123636      -632.3219715302 -6.86E-02
    30 Broy./Diag. 0.10E+00    7.2     0.00886110      -632.3717866714 -4.98E-02
    31 Broy./Diag. 0.10E+00    5.8     0.00759206      -632.4001463340 -2.84E-02
    32 Broy./Diag. 0.10E+00    6.5     0.01350462      -632.4213908812 -2.12E-02
    33 Broy./Diag. 0.10E+00    6.5     0.00354103      -632.4322847029 -1.09E-02
    34 Broy./Diag. 0.10E+00    6.0     0.00843442      -632.4337532303 -1.47E-03
    35 Broy./Diag. 0.10E+00    7.1     0.01157544      -632.4682677441 -3.45E-02
    36 Broy./Diag. 0.10E+00    5.3     0.00543032      -632.4844666267 -1.62E-02
    37 Broy./Diag. 0.10E+00    7.2     0.00432062      -632.5099986461 -2.55E-02
    38 Broy./Diag. 0.10E+00    5.9     0.00469986      -632.5147186723 -4.72E-03
    39 Broy./Diag. 0.10E+00    6.6     0.00474852      -632.5154435003 -7.25E-04
    40 Broy./Diag. 0.10E+00    6.4     0.00238984      -632.5166061610 -1.16E-03
    41 Broy./Diag. 0.10E+00    5.8     0.00267154      -632.5136108588  3.00E-03
    42 Broy./Diag. 0.10E+00    7.0     0.00374815      -632.5096435975  3.97E-03
    43 Broy./Diag. 0.10E+00    5.3     0.00188665      -632.5060522763  3.59E-03
    44 Broy./Diag. 0.10E+00    7.2     0.00451872      -632.5168294958 -1.08E-02
    45 Broy./Diag. 0.10E+00    5.6     0.00377294      -632.5085159482  8.31E-03
    46 Broy./Diag. 0.10E+00    6.6     0.00207699      -632.5141227008 -5.61E-03
    47 Broy./Diag. 0.10E+00    6.5     0.00228764      -632.5170412188 -2.92E-03
    48 Broy./Diag. 0.10E+00    6.0     0.00338631      -632.5220918399 -5.05E-03
    49 Broy./Diag. 0.10E+00    7.1     0.00488703      -632.5285650406 -6.47E-03
    50 Broy./Diag. 0.10E+00    5.5     0.00196120      -632.5370939647 -8.53E-03
    51 Broy./Diag. 0.10E+00    7.1     0.00235996      -632.5412661560 -4.17E-03
    52 Broy./Diag. 0.10E+00    5.6     0.00107978      -632.5480831792 -6.82E-03
    53 Broy./Diag. 0.10E+00    6.7     0.00117376      -632.5514901094 -3.41E-03
    54 Broy./Diag. 0.10E+00    6.5     0.00146160      -632.5525280828 -1.04E-03
    55 Broy./Diag. 0.10E+00    6.0     0.00154735      -632.5537656046 -1.24E-03
    56 Broy./Diag. 0.10E+00    7.0     0.00116916      -632.5553775617 -1.61E-03
    57 Broy./Diag. 0.10E+00    5.3     0.00081149      -632.5578470517 -2.47E-03
    58 Broy./Diag. 0.10E+00    7.2     0.00076505      -632.5611873654 -3.34E-03
    59 Broy./Diag. 0.10E+00    5.8     0.00109483      -632.5634133895 -2.23E-03
    60 Broy./Diag. 0.10E+00    6.5     0.00076977      -632.5628570669  5.56E-04
    61 Broy./Diag. 0.10E+00    6.4     0.00058651      -632.5637456209 -8.89E-04
    62 Broy./Diag. 0.10E+00    6.0     0.00059255      -632.5634273350  3.18E-04
    63 Broy./Diag. 0.10E+00    7.1     0.00107434      -632.5632607205  1.67E-04
    64 Broy./Diag. 0.10E+00    5.4     0.00053518      -632.5609626091  2.30E-03
    65 Broy./Diag. 0.10E+00    7.2     0.00050405      -632.5589665982  2.00E-03
    66 Broy./Diag. 0.10E+00    5.8     0.00040077      -632.5583186989  6.48E-04
    67 Broy./Diag. 0.10E+00    6.6     0.00039038      -632.5591458176 -8.27E-04
    68 Broy./Diag. 0.10E+00    6.5     0.00030117      -632.5598390943 -6.93E-04
    69 Broy./Diag. 0.10E+00    6.0     0.00030028      -632.5613114051 -1.47E-03
    70 Broy./Diag. 0.10E+00    7.0     0.00015344      -632.5622632542 -9.52E-04
    71 Broy./Diag. 0.10E+00    5.4     0.00011600      -632.5631528442 -8.90E-04
    72 Broy./Diag. 0.10E+00    7.2     0.00009837      -632.5640092973 -8.56E-04
    73 Broy./Diag. 0.10E+00    5.7     0.00011795      -632.5657593867 -1.75E-03
    74 Broy./Diag. 0.10E+00    6.6     0.00008736      -632.5668699242 -1.11E-03
    75 Broy./Diag. 0.10E+00    6.5     0.00011716      -632.5673430016 -4.73E-04
    76 Broy./Diag. 0.10E+00    6.1     0.00012662      -632.5677325410 -3.90E-04
    77 Broy./Diag. 0.10E+00    7.1     0.00011845      -632.5683638007 -6.31E-04
    78 Broy./Diag. 0.10E+00    5.4     0.00007552      -632.5692773840 -9.14E-04
    79 Broy./Diag. 0.10E+00    7.2     0.00003879      -632.5697457579 -4.68E-04
    80 Broy./Diag. 0.10E+00    5.7     0.00002833      -632.5698333914 -8.76E-05
    81 Broy./Diag. 0.10E+00    6.6     0.00003346      -632.5696857882  1.48E-04
[...]
   290 Broy./Diag. 0.10E+00    9.2     0.00493597      -679.7834296179  3.78E-04
   291 Broy./Diag. 0.10E+00    7.4     0.00503784      -679.7836218763 -1.92E-04
   292 Broy./Diag. 0.10E+00    8.9     0.00146366      -679.7837484449 -1.27E-04
   293 Broy./Diag. 0.10E+00    7.6     0.00223220      -679.7836820357  6.64E-05
   294 Broy./Diag. 0.10E+00    8.7     0.00230439      -679.7833945815  2.87E-04
   295 Broy./Diag. 0.10E+00    8.5     0.00045045      -679.7835886384 -1.94E-04
   296 Broy./Diag. 0.10E+00    8.6     0.00133239      -679.7832025598  3.86E-04
   297 Broy./Diag. 0.10E+00    9.2     0.00106636      -679.7836645069 -4.62E-04
   298 Broy./Diag. 0.10E+00    8.3     0.00177988      -679.7836696678 -5.16E-06
   299 Broy./Diag. 0.10E+00    9.4     0.00079992      -679.7834234408  2.46E-04
   300 Broy./Diag. 0.10E+00    8.0     0.00166588      -679.7834502288 -2.68E-05
   301 Broy./Diag. 0.10E+00    9.3     0.00122640      -679.7834454933  4.74E-06
   302 Broy./Diag. 0.10E+00    8.6     0.00032393      -679.7833802578  6.52E-05
   303 Broy./Diag. 0.10E+00    8.6     0.00214920      -679.7833800962  1.62E-07
   304 Broy./Diag. 0.10E+00    9.3     0.00088761      -679.7835033235 -1.23E-04
   305 Broy./Diag. 0.10E+00    8.3     0.00019914      -679.7833128499  1.90E-04
   306 Broy./Diag. 0.10E+00    9.4     0.00042118      -679.7834903740 -1.78E-04
   307 Broy./Diag. 0.10E+00    8.0     0.00052231      -679.7833543212  1.36E-04
   308 Broy./Diag. 0.10E+00    9.3     0.00142597      -679.7838538841 -5.00E-04
   309 Broy./Diag. 0.10E+00    8.6     0.00132910      -679.7833790508  4.75E-04
   310 Broy./Diag. 0.10E+00    8.9     0.00034422      -679.7834783015 -9.93E-05
   311 Broy./Diag. 0.10E+00    8.7     0.00079369      -679.7835884407 -1.10E-04
   312 Broy./Diag. 0.10E+00    8.6     0.00096568      -679.7843097098 -7.21E-04
   313 Broy./Diag. 0.10E+00    8.9     0.00097894      -679.7835507505  7.59E-04
   314 Broy./Diag. 0.10E+00    8.0     0.00029379      -679.7835828058 -3.21E-05
   315 Broy./Diag. 0.10E+00    9.2     0.00115207      -679.7837035442 -1.21E-04
   316 Broy./Diag. 0.10E+00    7.5     0.00099703      -679.7838873481 -1.84E-04
   317 Broy./Diag. 0.10E+00    9.0     0.00080059      -679.7836894267  1.98E-04
   318 Broy./Diag. 0.10E+00    7.5     0.00054761      -679.7840662117 -3.77E-04
   319 Broy./Diag. 0.10E+00    8.9     0.00033012      -679.7838617127  2.04E-04
   320 Broy./Diag. 0.10E+00    8.3     0.00029023      -679.7837952460  6.65E-05
   321 Broy./Diag. 0.10E+00    8.7     0.00039361      -679.7838136674 -1.84E-05
   322 Broy./Diag. 0.10E+00    8.7     0.00025161      -679.7837947152  1.90E-05
   323 Broy./Diag. 0.10E+00    8.6     0.00095331      -679.7836106083  1.84E-04
   324 Broy./Diag. 0.10E+00    8.9     0.00177696      -679.7837693844 -1.59E-04
   325 Broy./Diag. 0.10E+00    8.0     0.00060612      -679.7835358144  2.34E-04
   326 Broy./Diag. 0.10E+00    9.5     0.00042776      -679.7837022252 -1.66E-04
   327 Broy./Diag. 0.10E+00    7.7     0.00084689      -679.7833398693  3.62E-04
   328 Broy./Diag. 0.10E+00    9.2     0.00040601      -679.7834368816 -9.70E-05
   329 Broy./Diag. 0.10E+00    8.0     0.00034283      -679.7835855360 -1.49E-04
   330 Broy./Diag. 0.10E+00    8.8     0.00072697      -679.7833627280  2.23E-04
   331 Broy./Diag. 0.10E+00    8.6     0.00057106      -679.7832667421  9.60E-05
   332 Broy./Diag. 0.10E+00    8.8     0.00039370      -679.7832595571  7.18E-06
   333 Broy./Diag. 0.10E+00    9.4     0.00181446      -679.7834660315 -2.06E-04
   334 Broy./Diag. 0.10E+00    8.2     0.00065483      -679.7835834541 -1.17E-04
   335 Broy./Diag. 0.10E+00    9.2     0.00095314      -679.7833828804  2.01E-04
   336 Broy./Diag. 0.10E+00    7.9     0.00095048      -679.7834962740 -1.13E-04
   337 Broy./Diag. 0.10E+00    9.6     0.00124165      -679.7832629718  2.33E-04
   338 Broy./Diag. 0.10E+00    9.2     0.00064294      -679.7832952359 -3.23E-05
   339 Broy./Diag. 0.10E+00    8.8     0.00065240      -679.7831991644  9.61E-05
   340 Broy./Diag. 0.10E+00    9.2     0.00061922      -679.7833305425 -1.31E-04
   341 Broy./Diag. 0.10E+00    8.5     0.00033931      -679.7833315743 -1.03E-06
   342 Broy./Diag. 0.10E+00    9.4     0.00111573      -679.7830200508  3.12E-04
   343 Broy./Diag. 0.10E+00    8.6     0.00026728      -679.7831832972 -1.63E-04
   344 Broy./Diag. 0.10E+00    8.8     0.00085821      -679.7832297702 -4.65E-05
   345 Broy./Diag. 0.10E+00    8.5     0.00062141      -679.7831146823  1.15E-04
   346 Broy./Diag. 0.10E+00    8.7     0.00108000      -679.7831349676 -2.03E-05
   347 Broy./Diag. 0.10E+00    8.5     0.00040344      -679.7831273966  7.57E-06
   348 Broy./Diag. 0.10E+00    8.0     0.00068587      -679.7832480131 -1.21E-04
   349 Broy./Diag. 0.10E+00    8.9     0.00115052      -679.7830790668  1.69E-04
   350 Broy./Diag. 0.10E+00    7.8     0.00068896      -679.7831933846 -1.14E-04
   351 Broy./Diag. 0.10E+00    9.0     0.00078904      -679.7828999258  2.93E-04
   352 Broy./Diag. 0.10E+00    7.9     0.00079600      -679.7830043460 -1.04E-04
   353 Broy./Diag. 0.10E+00    9.2     0.00103859      -679.7830088220 -4.48E-06
   354 Broy./Diag. 0.10E+00    8.0     0.00041634      -679.7831352709 -1.26E-04
   355 Broy./Diag. 0.10E+00    8.7     0.00087609      -679.7830381466  9.71E-05
   356 Broy./Diag. 0.10E+00    8.7     0.00052062      -679.7830612473 -2.31E-05
   357 Broy./Diag. 0.10E+00    8.5     0.00088925      -679.7829295078  1.32E-04
   358 Broy./Diag. 0.10E+00    8.7     0.00056907      -679.7829261860  3.32E-06
   359 Broy./Diag. 0.10E+00    8.3     0.00078118      -679.7829297106 -3.52E-06
   360 Broy./Diag. 0.10E+00    9.3     0.00179050      -679.7831106747 -1.81E-04
   361 Broy./Diag. 0.10E+00    8.2     0.00009271      -679.7830677403  4.29E-05
   362 Broy./Diag. 0.10E+00    9.9     0.00008758      -679.7829688761  9.89E-05
   363 Broy./Diag. 0.10E+00    8.5     0.00085991      -679.7829578207  1.11E-05
   364 Broy./Diag. 0.10E+00   10.1     0.00156498      -679.7829021386  5.57E-05
   365 Broy./Diag. 0.10E+00    9.1     0.00073267      -679.7830262799 -1.24E-04
   366 Broy./Diag. 0.10E+00    9.5     0.00232573      -679.7828236721  2.03E-04
   367 Broy./Diag. 0.10E+00    9.9     0.00155530      -679.7826861845  1.37E-04
   368 Broy./Diag. 0.10E+00    9.6     0.00039518      -679.7824879810  1.98E-04
   369 Broy./Diag. 0.10E+00    9.9     0.00086689      -679.7826923162 -2.04E-04
   370 Broy./Diag. 0.10E+00    9.2     0.00098065      -679.7826440091  4.83E-05
   371 Broy./Diag. 0.10E+00   10.0     0.00195005      -679.7826348778  9.13E-06
   372 Broy./Diag. 0.10E+00    9.4     0.00036495      -679.7825728129  6.21E-05
   373 Broy./Diag. 0.10E+00    9.7     0.00007968      -679.7824559069  1.17E-04
   374 Broy./Diag. 0.10E+00    9.0     0.00057706      -679.7825400038 -8.41E-05
   375 Broy./Diag. 0.10E+00   10.4     0.00054170      -679.7826924381 -1.52E-04
   376 Broy./Diag. 0.10E+00    9.4     0.00037470      -679.7826752601  1.72E-05
   377 Broy./Diag. 0.10E+00    9.6     0.00040080      -679.7826952764 -2.00E-05
   378 Broy./Diag. 0.10E+00    9.5     0.00031850      -679.7829579408 -2.63E-04
   379 Broy./Diag. 0.10E+00    9.1     0.00043686      -679.7828908299  6.71E-05
   380 Broy./Diag. 0.10E+00   10.3     0.00058704      -679.7829760682 -8.52E-05
   381 Broy./Diag. 0.10E+00    8.7     0.00021012      -679.7831972641 -2.21E-04
   382 Broy./Diag. 0.10E+00    9.6     0.00051404      -679.7829551337  2.42E-04
   383 Broy./Diag. 0.10E+00    8.8     0.00033536      -679.7829214192  3.37E-05
   384 Broy./Diag. 0.10E+00    9.7     0.00042583      -679.7828261557  9.53E-05
   385 Broy./Diag. 0.10E+00    8.4     0.00023470      -679.7828555394 -2.94E-05
   386 Broy./Diag. 0.10E+00   10.0     0.00026611      -679.7829177659 -6.22E-05
   387 Broy./Diag. 0.10E+00    8.9     0.00029429      -679.7828129790  1.05E-04
   388 Broy./Diag. 0.10E+00    9.6     0.00033349      -679.7828864210 -7.34E-05
   389 Broy./Diag. 0.10E+00    9.6     0.00044691      -679.7828005999  8.58E-05
   390 Broy./Diag. 0.10E+00    9.1     0.00032040      -679.7828048930 -4.29E-06
   391 Broy./Diag. 0.10E+00    8.9     0.00016905      -679.7828405526 -3.57E-05
   392 Broy./Diag. 0.10E+00    9.7     0.00123786      -679.7827564857  8.41E-05
   393 Broy./Diag. 0.10E+00    8.7     0.00043136      -679.7825684137  1.88E-04
   394 Broy./Diag. 0.10E+00    9.4     0.00031750      -679.7824397697  1.29E-04
   395 Broy./Diag. 0.10E+00    9.7     0.00095457      -679.7823990701  4.07E-05
   396 Broy./Diag. 0.10E+00    9.2     0.00125411      -679.7823353725  6.37E-05
   397 Broy./Diag. 0.10E+00    9.8     0.00044751      -679.7824045143 -6.91E-05
   398 Broy./Diag. 0.10E+00    9.2     0.00128326      -679.7824729050 -6.84E-05
   399 Broy./Diag. 0.10E+00    8.7     0.00109852      -679.7823386589  1.34E-04
   400 Broy./Diag. 0.10E+00   10.0     0.00044383      -679.7824196969 -8.10E-05

  Leaving inner SCF loop after reaching   400 steps.


  Electronic density on regular grids:       -456.9999346283        0.0000653717
  Core density on regular grids:              456.9999999996       -0.0000000004
  Total charge density on r-space grids:        0.0000653713
  Total charge density g-space grids:           0.0000653713

  Overlap energy of the core charge distribution:               0.00001865557362
  Self energy of the core charge distribution:              -1590.12737799212982
  Core Hamiltonian energy:                                    496.86214732693190
  Hartree energy:                                             611.89174737658425
  Exchange-correlation energy:                               -198.16770626169387
  Dispersion energy:                                           -0.23330273140725
  Electronic entropic energy:                                  -0.00794584152876
  Fermi energy:                                                -0.13321525395459

  Total energy:                                              -679.78241969693886

  outer SCF iter =    1 RMS gradient =   0.44E-03 energy =       -679.7824196969
     1 Broy./Diag. 0.10E+00   16.7     0.01109249      -679.7813301967  1.09E-03
     2 Broy./Diag. 0.10E+00    9.2     0.01077420      -679.7878572098 -6.53E-03
     3 Broy./Diag. 0.10E+00    9.9     0.00025992      -679.7822751639  5.58E-03
     4 Broy./Diag. 0.10E+00    9.5     0.00015819      -679.7822783020 -3.14E-06
     5 Broy./Diag. 0.10E+00    9.1     0.00012820      -679.7822866949 -8.39E-06
     6 Broy./Diag. 0.10E+00   10.0     0.00017676      -679.7823363087 -4.96E-05
     7 Broy./Diag. 0.10E+00    8.9     0.00019853      -679.7824193714 -8.31E-05
     8 Broy./Diag. 0.10E+00   10.3     0.00009934      -679.7824437093 -2.43E-05
     9 Broy./Diag. 0.10E+00    8.6     0.00028416      -679.7823439017  9.98E-05
    10 Broy./Diag. 0.10E+00    9.6     0.00029814      -679.7823406467  3.26E-06
    11 Broy./Diag. 0.10E+00    8.8     0.00114332      -679.7824165051 -7.59E-05
    12 Broy./Diag. 0.10E+00    9.7     0.00023140      -679.7824508908 -3.44E-05
    13 Broy./Diag. 0.10E+00    8.9     0.00037119      -679.7823413417  1.10E-04
    14 Broy./Diag. 0.10E+00   10.0     0.00167475      -679.7822869192  5.44E-05
    15 Broy./Diag. 0.10E+00    8.5     0.00040074      -679.7821690785  1.18E-04
    16 Broy./Diag. 0.10E+00   10.3     0.00007934      -679.7821718793 -2.80E-06
    17 Broy./Diag. 0.10E+00    8.4     0.00015041      -679.7821569209  1.50E-05
    18 Broy./Diag. 0.10E+00    9.5     0.00030161      -679.7821690088 -1.21E-05
    19 Broy./Diag. 0.10E+00    9.2     0.00028520      -679.7821415335  2.75E-05
    20 Broy./Diag. 0.10E+00    9.6     0.00028536      -679.7822211336 -7.96E-05
    21 Broy./Diag. 0.10E+00    9.2     0.00031163      -679.7823077268 -8.66E-05
    22 Broy./Diag. 0.10E+00    9.5     0.00023803      -679.7822648561  4.29E-05
    23 Broy./Diag. 0.10E+00    9.3     0.00034317      -679.7823490686 -8.42E-05
    24 Broy./Diag. 0.10E+00   10.0     0.00013393      -679.7822674669  8.16E-05
    25 Broy./Diag. 0.10E+00    9.2     0.00013921      -679.7822663182  1.15E-06
    26 Broy./Diag. 0.10E+00    9.6     0.00030313      -679.7823607133 -9.44E-05
    27 Broy./Diag. 0.10E+00    9.4     0.00058967      -679.7823653787 -4.67E-06
    28 Broy./Diag. 0.10E+00    9.3     0.00063679      -679.7824892038 -1.24E-04
    29 Broy./Diag. 0.10E+00   10.1     0.00031133      -679.7823525314  1.37E-04
    30 Broy./Diag. 0.10E+00    9.2     0.00060352      -679.7823502962  2.24E-06
    31 Broy./Diag. 0.10E+00    9.7     0.00039170      -679.7823190974  3.12E-05
    32 Broy./Diag. 0.10E+00    8.9     0.00033876      -679.7823702375 -5.11E-05
    33 Broy./Diag. 0.10E+00    9.7     0.00108218      -679.7823584224  1.18E-05
    34 Broy./Diag. 0.10E+00    9.5     0.00053880      -679.7823761006 -1.77E-05
    35 Broy./Diag. 0.10E+00    9.9     0.00046847      -679.7823096952  6.64E-05
    36 Broy./Diag. 0.10E+00    8.8     0.00041395      -679.7823952132 -8.55E-05
    37 Broy./Diag. 0.10E+00   10.0     0.00016673      -679.7824010819 -5.87E-06
    38 Broy./Diag. 0.10E+00    7.6     0.00008476      -679.7824101094 -9.03E-06
    39 Broy./Diag. 0.10E+00    8.8     0.00009216      -679.7823416790  6.84E-05
    40 Broy./Diag. 0.10E+00    8.0     0.00011681      -679.7824645233 -1.23E-04
    41 Broy./Diag. 0.10E+00    8.9     0.00017953      -679.7823547087  1.10E-04
    42 Broy./Diag. 0.10E+00    7.2     0.00043043      -679.7823525054  2.20E-06
    43 Broy./Diag. 0.10E+00    8.7     0.00012736      -679.7824286937 -7.62E-05
    44 Broy./Diag. 0.10E+00    6.9     0.00042479      -679.7823753707  5.33E-05
    45 Broy./Diag. 0.10E+00    9.1     0.00026944      -679.7822924675  8.29E-05
    46 Broy./Diag. 0.10E+00    7.5     0.00044355      -679.7824109098 -1.18E-04
    47 Broy./Diag. 0.10E+00    8.8     0.00017613      -679.7823891087  2.18E-05
    48 Broy./Diag. 0.10E+00    7.8     0.00012760      -679.7823912956 -2.19E-06
    49 Broy./Diag. 0.10E+00    9.1     0.00027367      -679.7824404900 -4.92E-05
    50 Broy./Diag. 0.10E+00    7.4     0.00009844      -679.7824941826 -5.37E-05
    51 Broy./Diag. 0.10E+00    9.1     0.00004990      -679.7826374983 -1.43E-04
    52 Broy./Diag. 0.10E+00    7.9     0.00005866      -679.7826722717 -3.48E-05
    53 Broy./Diag. 0.10E+00    8.9     0.00021876      -679.7826574964  1.48E-05
    54 Broy./Diag. 0.10E+00    7.5     0.00024258      -679.7826101147  4.74E-05
    55 Broy./Diag. 0.10E+00    9.2     0.00015668      -679.7824985642  1.12E-04
    56 Broy./Diag. 0.10E+00    7.6     0.00008664      -679.7825445865 -4.60E-05
    57 Broy./Diag. 0.10E+00    9.0     0.00013326      -679.7824469966  9.76E-05
    58 Broy./Diag. 0.10E+00    7.6     0.00009572      -679.7823992334  4.78E-05
    59 Broy./Diag. 0.10E+00    8.9     0.00010386      -679.7824329071 -3.37E-05
    60 Broy./Diag. 0.10E+00    7.9     0.00019356      -679.7823349335  9.80E-05
    61 Broy./Diag. 0.10E+00    8.9     0.00023783      -679.7823558928 -2.10E-05
    62 Broy./Diag. 0.10E+00    8.0     0.00023261      -679.7823264771  2.94E-05
    63 Broy./Diag. 0.10E+00    8.2     0.00030650      -679.7824355716 -1.09E-04
    64 Broy./Diag. 0.10E+00    8.3     0.00047894      -679.7823609621  7.46E-05
    65 Broy./Diag. 0.10E+00    8.0     0.00011881      -679.7824993009 -1.38E-04
    66 Broy./Diag. 0.10E+00    8.4     0.00028656      -679.7824987530  5.48E-07
    67 Broy./Diag. 0.10E+00    8.2     0.00009509      -679.7825278646 -2.91E-05
    68 Broy./Diag. 0.10E+00    8.4     0.00014945      -679.7824999439  2.79E-05
    69 Broy./Diag. 0.10E+00    8.2     0.00012300      -679.7825221721 -2.22E-05
    70 Broy./Diag. 0.10E+00    8.5     0.00004816      -679.7823548322  1.67E-04
    71 Broy./Diag. 0.10E+00    8.1     0.00003590      -679.7823700997 -1.53E-05
    72 Broy./Diag. 0.10E+00    8.7     0.00018109      -679.7823406977  2.94E-05
    73 Broy./Diag. 0.10E+00    7.9     0.00035258      -679.7823023216  3.84E-05
    74 Broy./Diag. 0.10E+00    8.8     0.00018954      -679.7822890594  1.33E-05
    75 Broy./Diag. 0.10E+00    8.0     0.00014412      -679.7823228536 -3.38E-05
    76 Broy./Diag. 0.10E+00    8.7     0.00032377      -679.7825286674 -2.06E-04
    77 Broy./Diag. 0.10E+00    8.1     0.00030864      -679.7825960998 -6.74E-05
    78 Broy./Diag. 0.10E+00    8.7     0.00024958      -679.7825783230  1.78E-05
    79 Broy./Diag. 0.10E+00    8.0     0.00024415      -679.7825426664  3.57E-05
    80 Broy./Diag. 0.10E+00    8.8     0.00005218      -679.7825866795 -4.40E-05
    81 Broy./Diag. 0.10E+00    8.0     0.00017313      -679.7825078060  7.89E-05
    82 Broy./Diag. 0.10E+00    8.8     0.00010154      -679.7824529802  5.48E-05
    83 Broy./Diag. 0.10E+00    8.1     0.00011482      -679.7824970911 -4.41E-05
    84 Broy./Diag. 0.10E+00    9.0     0.00014454      -679.7825656342 -6.85E-05
    85 Broy./Diag. 0.10E+00    8.6     0.00008474      -679.7824227876  1.43E-04
    86 Broy./Diag. 0.10E+00    8.7     0.00010048      -679.7825041932 -8.14E-05
    87 Broy./Diag. 0.10E+00    8.8     0.00014714      -679.7824833379  2.09E-05
    88 Broy./Diag. 0.10E+00    8.5     0.00019915      -679.7825291867 -4.58E-05
    89 Broy./Diag. 0.10E+00    8.9     0.00007887      -679.7824636141  6.56E-05
    90 Broy./Diag. 0.10E+00    8.4     0.00005007      -679.7825055384 -4.19E-05
    91 Broy./Diag. 0.10E+00    9.1     0.00019371      -679.7825140668 -8.53E-06
    92 Broy./Diag. 0.10E+00    8.3     0.00008986      -679.7825585484 -4.45E-05
    93 Broy./Diag. 0.10E+00    9.2     0.00011531      -679.7825370872  2.15E-05
    94 Broy./Diag. 0.10E+00    8.2     0.00014404      -679.7825152931  2.18E-05
    95 Broy./Diag. 0.10E+00    9.0     0.00009532      -679.7824814970  3.38E-05
    96 Broy./Diag. 0.10E+00    8.7     0.00009073      -679.7825438621 -6.24E-05
    97 Broy./Diag. 0.10E+00    8.8     0.00010169      -679.7826061741 -6.23E-05
    98 Broy./Diag. 0.10E+00    8.3     0.00016691      -679.7825179369  8.82E-05
    99 Broy./Diag. 0.10E+00    8.5     0.00025676      -679.7825750004 -5.71E-05
   100 Broy./Diag. 0.10E+00    8.3     0.00008657      -679.7825377047  3.73E-05
   101 Broy./Diag. 0.10E+00    8.8     0.00025275      -679.7825664641 -2.88E-05
   102 Broy./Diag. 0.10E+00    8.1     0.00006832      -679.7825052934  6.12E-05
   103 Broy./Diag. 0.10E+00    8.6     0.00015452      -679.7825598090 -5.45E-05
   104 Broy./Diag. 0.10E+00    8.0     0.00012374      -679.7825870414 -2.72E-05
   105 Broy./Diag. 0.10E+00    8.8     0.00004401      -679.7826214820 -3.44E-05
   106 Broy./Diag. 0.10E+00    8.1     0.00007166      -679.7825918034  2.97E-05
   107 Broy./Diag. 0.10E+00    8.7     0.00013510      -679.7825525114  3.93E-05
   108 Broy./Diag. 0.10E+00    8.0     0.00008350      -679.7825501970  2.31E-06
   109 Broy./Diag. 0.10E+00    8.8     0.00013505      -679.7826102532 -6.01E-05
   110 Broy./Diag. 0.10E+00    8.3     0.00019558      -679.7825358960  7.44E-05
   111 Broy./Diag. 0.10E+00    8.4     0.00010439      -679.7824956046  4.03E-05
   112 Broy./Diag. 0.10E+00    7.7     0.00005691      -679.7824783857  1.72E-05
   113 Broy./Diag. 0.10E+00    8.5     0.00010182      -679.7825124132 -3.40E-05
   114 Broy./Diag. 0.10E+00    7.9     0.00006627      -679.7824894233  2.30E-05
   115 Broy./Diag. 0.10E+00    8.6     0.00006077      -679.7824910770 -1.65E-06
   116 Broy./Diag. 0.10E+00    7.4     0.00013806      -679.7825349450 -4.39E-05
   117 Broy./Diag. 0.10E+00    8.5     0.00010920      -679.7824962549  3.87E-05
   118 Broy./Diag. 0.10E+00    7.8     0.00005231      -679.7825282094 -3.20E-05
-------------------------------------------------------
Primary job  terminated normally, but 1 process returned
a non-zero exit code. Per user-direction, the job has been aborted.
-------------------------------------------------------
