 DBCSR| CPU Multiplication driver                                           BLAS (U)
 DBCSR| Multrec recursion limit                                              512 (U)
 DBCSR| Multiplication stack size                                           1000 (D)
 DBCSR| Maximum elements for images                                    UNLIMITED (U)
 DBCSR| Multiplicative factor virtual images                                   1 (U)
 DBCSR| Use multiplication densification                                       T (D)
 DBCSR| Multiplication size stacks                                             3 (U)
 DBCSR| Use memory pool for CPU allocation                                     F (U)
 DBCSR| Number of 3D layers                                               SINGLE (U)
 DBCSR| Use MPI memory allocation                                              F (U)
 DBCSR| Use RMA algorithm                                                      F (U)
 DBCSR| Use Communication thread                                               T (U)
 DBCSR| Communication thread load                                             87 (D)
 DBCSR| MPI: My process id                                                     0
 DBCSR| MPI: Number of processes                                              16
 DBCSR| OMP: Current number of threads                                         1
 DBCSR| OMP: Max number of threads                                             1
 DBCSR| Split modifier for TAS multiplication algorithm                  1.0E+00 (U)


  **** **** ******  **  PROGRAM STARTED AT               2025-06-22 15:39:07.402
 ***** ** ***  *** **   PROGRAM STARTED ON                            sebnode129
 **    ****   ******    PROGRAM STARTED BY                                luehrs
 ***** **    ** ** **   PROGRAM PROCESS ID                               1826078
  **** **  *******  **  PROGRAM STARTED IN /home/luehrs/PhD/Sodium_batteries/Sod
                                           ium-graphene-curvature/Sinus_surface2
                                           /Sinus4

 CP2K| version string:                                       CP2K version 2023.1
 CP2K| source code revision number:                                  git:b888bd8
 CP2K| cp2kflags: omp libint fftw3 libxc elpa parallel scalapack spglib         
 CP2K| is freely available from                            https://www.cp2k.org/
 CP2K| Program compiled at                          Tue Jan 10 19:52:03 UTC 2023
 CP2K| Program compiled on                                            x86-ubc-01
 CP2K| Program compiled for                                Linux-x86_64-gfortran
 CP2K| Data directory path                                       /usr/share/cp2k
 CP2K| Input file name                                        input.zig-zag1.inp

 GLOBAL| Force Environment number                                              1
 GLOBAL| Basis set file name                                      ./BASIS_MOLOPT
 GLOBAL| Potential file name                                    ./GTH_POTENTIALS
 GLOBAL| MM Potential file name                                     MM_POTENTIAL
 GLOBAL| Coordinate file name                               sinus2_4_relaxed.xyz
 GLOBAL| Method name                                                        CP2K
 GLOBAL| Project name                                graphene_sinus2_Sodium_BSSE
 GLOBAL| Run type                                                           BSSE
 GLOBAL| FFT library                                                       FFTW3
 GLOBAL| Diagonalization library                                            ELPA
 GLOBAL| DGEMM library                                                      BLAS
 GLOBAL| Minimum number of eigenvectors for ELPA usage                        16
 GLOBAL| Orthonormality check for eigenvectors                          DISABLED
 GLOBAL| Matrix multiplication library                                 ScaLAPACK
 GLOBAL| All-to-all communication in single precision                          F
 GLOBAL| FFTs using library dependent lengths                                  F
 GLOBAL| Grid backend                                                       AUTO
 GLOBAL| Global print level                                                  LOW
 GLOBAL| MPI I/O enabled                                                       T
 GLOBAL| Total number of message passing processes                            16
 GLOBAL| Number of threads for this process                                    1
 GLOBAL| This output is from process                                           0
 GLOBAL| Stack size for threads created by OpenMP (OMP_STACKSIZE)        default
 GLOBAL| CPU model name                          AMD EPYC 7513 32-Core Processor

 MEMORY| system memory details [Kb]
 MEMORY|                        rank 0           min           max       average
 MEMORY| MemTotal            131832300     131832300     131832300     131832300
 MEMORY| MemFree             122505916     122505916     122505916     122505916
 MEMORY| Buffers                310468        310468        310468        310468
 MEMORY| Cached                1139452       1139448       1139452       1139449
 MEMORY| Slab                   854636        854636        854636        854636
 MEMORY| SReclaimable           195104        195104        195104        195104
 MEMORY| MemLikelyFree       124150940     124150936     124150940     124150937


 GENERATE|  Preliminary Number of Bonds generated:                             0
 GENERATE|  Achieved consistency in connectivity generation.

 *******************************************************************************
 *******************************************************************************
 **                                                                           **
 **     #####                         ##              ##                      **
 **    ##   ##            ##          ##              ##                      **
 **   ##     ##                       ##            ######                    **
 **   ##     ##  ##   ##  ##   #####  ##  ##   ####   ##    #####    #####    **
 **   ##     ##  ##   ##  ##  ##      ## ##   ##      ##   ##   ##  ##   ##   **
 **   ##  ## ##  ##   ##  ##  ##      ####     ###    ##   ######   ######    **
 **    ##  ###   ##   ##  ##  ##      ## ##      ##   ##   ##       ##        **
 **     #######   #####   ##   #####  ##  ##  ####    ##    #####   ##        **
 **           ##                                                    ##        **
 **                                                                           **
 **                                                ... make the atoms dance   **
 **                                                                           **
 **            Copyright (C) by CP2K developers group (2000-2022)             **
 **                      J. Chem. Phys. 152, 194103 (2020)                    **
 **                                                                           **
 *******************************************************************************


 TOTAL NUMBERS AND MAXIMUM NUMBERS

  Total number of            - Atomic kinds:                                   2
                             - Atoms:                                        193
                             - Shell sets:                                   193
                             - Shells:                                       965
                             - Primitive Cartesian functions:                967
                             - Cartesian basis functions:                   2697
                             - Spherical basis functions:                   2505

  Maximum angular momentum of- Orbital basis functions:                        2
                             - Local part of the GTH pseudopotential:          2
                             - Non-local part of the GTH pseudopotential:      1


 SCF PARAMETERS         Density guess:                                    ATOMIC
                        --------------------------------------------------------
                        max_scf:                                             300
                        max_scf_history:                                       0
                        max_diis:                                              4
                        --------------------------------------------------------
                        eps_scf:                                        3.00E-07
                        eps_scf_history:                                0.00E+00
                        eps_diis:                                       1.00E-01
                        eps_eigval:                                     1.00E-05
                        --------------------------------------------------------
                        level_shift [a.u.]:                             0.000000
                        added MOs                                       100    0
                        --------------------------------------------------------
                        Mixing method:                            BROYDEN_MIXING
                                                charge density mixing in g-space
                        --------------------------------------------------------
                        Smear method:                                FERMI_DIRAC
                        Electronic temperature [K]:                        300.0
                        Electronic temperature [a.u.]:                  9.50E-04
                        Accuracy threshold:                             1.00E-10
                        --------------------------------------------------------
                        Outer loop SCF in use 
                        No variables optimised in outer loop
                        eps_scf                                         1.00E-06
                        max_scf                                              300
                        DIIS optimization
                        DIIS buffer length                                     3
                        step_size                                       5.00E-01

 -------------------------------------------------------------------------------
 -                                                                             -
 -  BSSE CALCULATION         FRAGMENT CONF: 10        FRAGMENT SUBCONF: 10     -
 -                           CHARGE =     0           MULTIPLICITY =     0     -
 -                                                                             -
 -                 ATOM INDEX                              ATOM NAME           -
 -                 ----------                              ---------           -
 -                      1                                   C                  -
 -                      2                                   C                  -
 -                      3                                   C                  -
 -                      4                                   C                  -
 -                      5                                   C                  -
 -                      6                                   C                  -
 -                      7                                   C                  -
 -                      8                                   C                  -
 -                      9                                   C                  -
 -                     10                                   C                  -
 -                     11                                   C                  -
 -                     12                                   C                  -
 -                     13                                   C                  -
 -                     14                                   C                  -
 -                     15                                   C                  -
 -                     16                                   C                  -
 -                     17                                   C                  -
 -                     18                                   C                  -
 -                     19                                   C                  -
 -                     20                                   C                  -
 -                     21                                   C                  -
 -                     22                                   C                  -
 -                     23                                   C                  -
 -                     24                                   C                  -
 -                     25                                   C                  -
 -                     26                                   C                  -
 -                     27                                   C                  -
 -                     28                                   C                  -
 -                     29                                   C                  -
 -                     30                                   C                  -
 -                     31                                   C                  -
 -                     32                                   C                  -
 -                     33                                   C                  -
 -                     34                                   C                  -
 -                     35                                   C                  -
 -                     36                                   C                  -
 -                     37                                   C                  -
 -                     38                                   C                  -
 -                     39                                   C                  -
 -                     40                                   C                  -
 -                     41                                   C                  -
 -                     42                                   C                  -
 -                     43                                   C                  -
 -                     44                                   C                  -
 -                     45                                   C                  -
 -                     46                                   C                  -
 -                     47                                   C                  -
 -                     48                                   C                  -
 -                     49                                   C                  -
 -                     50                                   C                  -
 -                     51                                   C                  -
 -                     52                                   C                  -
 -                     53                                   C                  -
 -                     54                                   C                  -
 -                     55                                   C                  -
 -                     56                                   C                  -
 -                     57                                   C                  -
 -                     58                                   C                  -
 -                     59                                   C                  -
 -                     60                                   C                  -
 -                     61                                   C                  -
 -                     62                                   C                  -
 -                     63                                   C                  -
 -                     64                                   C                  -
 -                     65                                   C                  -
 -                     66                                   C                  -
 -                     67                                   C                  -
 -                     68                                   C                  -
 -                     69                                   C                  -
 -                     70                                   C                  -
 -                     71                                   C                  -
 -                     72                                   C                  -
 -                     73                                   C                  -
 -                     74                                   C                  -
 -                     75                                   C                  -
 -                     76                                   C                  -
 -                     77                                   C                  -
 -                     78                                   C                  -
 -                     79                                   C                  -
 -                     80                                   C                  -
 -                     81                                   C                  -
 -                     82                                   C                  -
 -                     83                                   C                  -
 -                     84                                   C                  -
 -                     85                                   C                  -
 -                     86                                   C                  -
 -                     87                                   C                  -
 -                     88                                   C                  -
 -                     89                                   C                  -
 -                     90                                   C                  -
 -                     91                                   C                  -
 -                     92                                   C                  -
 -                     93                                   C                  -
 -                     94                                   C                  -
 -                     95                                   C                  -
 -                     96                                   C                  -
 -                     97                                   C                  -
 -                     98                                   C                  -
 -                     99                                   C                  -
 -                    100                                   C                  -
 -                    101                                   C                  -
 -                    102                                   C                  -
 -                    103                                   C                  -
 -                    104                                   C                  -
 -                    105                                   C                  -
 -                    106                                   C                  -
 -                    107                                   C                  -
 -                    108                                   C                  -
 -                    109                                   C                  -
 -                    110                                   C                  -
 -                    111                                   C                  -
 -                    112                                   C                  -
 -                    113                                   C                  -
 -                    114                                   C                  -
 -                    115                                   C                  -
 -                    116                                   C                  -
 -                    117                                   C                  -
 -                    118                                   C                  -
 -                    119                                   C                  -
 -                    120                                   C                  -
 -                    121                                   C                  -
 -                    122                                   C                  -
 -                    123                                   C                  -
 -                    124                                   C                  -
 -                    125                                   C                  -
 -                    126                                   C                  -
 -                    127                                   C                  -
 -                    128                                   C                  -
 -                    129                                   C                  -
 -                    130                                   C                  -
 -                    131                                   C                  -
 -                    132                                   C                  -
 -                    133                                   C                  -
 -                    134                                   C                  -
 -                    135                                   C                  -
 -                    136                                   C                  -
 -                    137                                   C                  -
 -                    138                                   C                  -
 -                    139                                   C                  -
 -                    140                                   C                  -
 -                    141                                   C                  -
 -                    142                                   C                  -
 -                    143                                   C                  -
 -                    144                                   C                  -
 -                    145                                   C                  -
 -                    146                                   C                  -
 -                    147                                   C                  -
 -                    148                                   C                  -
 -                    149                                   C                  -
 -                    150                                   C                  -
 -                    151                                   C                  -
 -                    152                                   C                  -
 -                    153                                   C                  -
 -                    154                                   C                  -
 -                    155                                   C                  -
 -                    156                                   C                  -
 -                    157                                   C                  -
 -                    158                                   C                  -
 -                    159                                   C                  -
 -                    160                                   C                  -
 -                    161                                   C                  -
 -                    162                                   C                  -
 -                    163                                   C                  -
 -                    164                                   C                  -
 -                    165                                   C                  -
 -                    166                                   C                  -
 -                    167                                   C                  -
 -                    168                                   C                  -
 -                    169                                   C                  -
 -                    170                                   C                  -
 -                    171                                   C                  -
 -                    172                                   C                  -
 -                    173                                   C                  -
 -                    174                                   C                  -
 -                    175                                   C                  -
 -                    176                                   C                  -
 -                    177                                   C                  -
 -                    178                                   C                  -
 -                    179                                   C                  -
 -                    180                                   C                  -
 -                    181                                   C                  -
 -                    182                                   C                  -
 -                    183                                   C                  -
 -                    184                                   C                  -
 -                    185                                   C                  -
 -                    186                                   C                  -
 -                    187                                   C                  -
 -                    188                                   C                  -
 -                    189                                   C                  -
 -                    190                                   C                  -
 -                    191                                   C                  -
 -                    192                                   C                  -
 -------------------------------------------------------------------------------

 *******************************************************************************
 *******************************************************************************
 **                                                                           **
 **     #####                         ##              ##                      **
 **    ##   ##            ##          ##              ##                      **
 **   ##     ##                       ##            ######                    **
 **   ##     ##  ##   ##  ##   #####  ##  ##   ####   ##    #####    #####    **
 **   ##     ##  ##   ##  ##  ##      ## ##   ##      ##   ##   ##  ##   ##   **
 **   ##  ## ##  ##   ##  ##  ##      ####     ###    ##   ######   ######    **
 **    ##  ###   ##   ##  ##  ##      ## ##      ##   ##   ##       ##        **
 **     #######   #####   ##   #####  ##  ##  ####    ##    #####   ##        **
 **           ##                                                    ##        **
 **                                                                           **
 **                                                ... make the atoms dance   **
 **                                                                           **
 **            Copyright (C) by CP2K developers group (2000-2022)             **
 **                      J. Chem. Phys. 152, 194103 (2020)                    **
 **                                                                           **
 *******************************************************************************


 TOTAL NUMBERS AND MAXIMUM NUMBERS

  Total number of            - Atomic kinds:                                   1
                             - Atoms:                                        192
                             - Shell sets:                                   192
                             - Shells:                                       960
                             - Primitive Cartesian functions:                960
                             - Cartesian basis functions:                   2688
                             - Spherical basis functions:                   2496

  Maximum angular momentum of- Orbital basis functions:                        2
                             - Local part of the GTH pseudopotential:          2
                             - Non-local part of the GTH pseudopotential:      0


 SCF PARAMETERS         Density guess:                                    ATOMIC
                        --------------------------------------------------------
                        max_scf:                                             300
                        max_scf_history:                                       0
                        max_diis:                                              4
                        --------------------------------------------------------
                        eps_scf:                                        3.00E-07
                        eps_scf_history:                                0.00E+00
                        eps_diis:                                       1.00E-01
                        eps_eigval:                                     1.00E-05
                        --------------------------------------------------------
                        level_shift [a.u.]:                             0.000000
                        added MOs                                       100    0
                        --------------------------------------------------------
                        Mixing method:                            BROYDEN_MIXING
                                                charge density mixing in g-space
                        --------------------------------------------------------
                        Smear method:                                FERMI_DIRAC
                        Electronic temperature [K]:                        300.0
                        Electronic temperature [a.u.]:                  9.50E-04
                        Accuracy threshold:                             1.00E-10
                        --------------------------------------------------------
                        Outer loop SCF in use 
                        No variables optimised in outer loop
                        eps_scf                                         1.00E-06
                        max_scf                                              300
                        DIIS optimization
                        DIIS buffer length                                     3
                        step_size                                       5.00E-01

 Number of electrons:                                                        768
 Number of occupied orbitals:                                                384
 Number of molecular orbitals:                                               484

 Number of orbital functions:                                               2496
 Number of independent orbital functions:                                   2496

 Extrapolation method: initial_guess


 SCF WAVEFUNCTION OPTIMIZATION

  Step     Update method      Time    Convergence         Total energy    Change
  ------------------------------------------------------------------------------
     1 NoMix/Diag. 0.10E+00  150.3     0.92570093     -1085.8534327510 -1.09E+03
     2 Broy./Diag. 0.10E+00  163.4     0.00228452     -1044.4969895620  4.14E+01
     3 Broy./Diag. 0.10E+00  160.2     0.02542279     -1076.6059924583 -3.21E+01
     4 Broy./Diag. 0.10E+00  144.5     0.00034867     -1090.2483541282 -1.36E+01
     5 Broy./Diag. 0.10E+00  144.6     0.00224107     -1090.8495637888 -6.01E-01
     6 Broy./Diag. 0.10E+00  134.6     0.00009477     -1092.0271311193 -1.18E+00
     7 Broy./Diag. 0.10E+00  137.2     0.00073875     -1092.5468090168 -5.20E-01
     8 Broy./Diag. 0.10E+00  162.5     0.00004655     -1092.9093991486 -3.63E-01
     9 Broy./Diag. 0.10E+00  153.1     0.00056149     -1093.0851364463 -1.76E-01
    10 Broy./Diag. 0.10E+00  162.9     0.00005136     -1093.3035086733 -2.18E-01
    11 Broy./Diag. 0.10E+00  160.9     0.00048811     -1093.2685690642  3.49E-02
    12 Broy./Diag. 0.10E+00  154.6     0.00003546     -1093.3473469265 -7.88E-02
    13 Broy./Diag. 0.10E+00  152.9     0.00039677     -1093.3838475880 -3.65E-02
    14 Broy./Diag. 0.10E+00  144.2     0.00009226     -1093.4249981360 -4.12E-02
    15 Broy./Diag. 0.10E+00  153.3     0.00025742     -1093.4594685071 -3.45E-02
    16 Broy./Diag. 0.10E+00  126.9     0.00007691     -1093.4795685365 -2.01E-02
    17 Broy./Diag. 0.10E+00  158.6     0.00008646     -1093.4657645258  1.38E-02
    18 Broy./Diag. 0.10E+00  164.6     0.00002436     -1093.4569217955  8.84E-03
    19 Broy./Diag. 0.10E+00  160.4     0.00006000     -1093.4573562169 -4.34E-04
    20 Broy./Diag. 0.10E+00  157.7     0.00003323     -1093.4649519041 -7.60E-03
    21 Broy./Diag. 0.10E+00  145.8     0.00002460     -1093.4705243754 -5.57E-03
    22 Broy./Diag. 0.10E+00  166.4     0.00003246     -1093.4744413558 -3.92E-03
    23 Broy./Diag. 0.10E+00  150.6     0.00000763     -1093.4763814364 -1.94E-03
    24 Broy./Diag. 0.10E+00  138.7     0.00001643     -1093.4774798838 -1.10E-03
    25 Broy./Diag. 0.10E+00  164.1     0.00000304     -1093.4778359122 -3.56E-04
    26 Broy./Diag. 0.10E+00  144.3     0.00001334     -1093.4768987406  9.37E-04
    27 Broy./Diag. 0.10E+00  159.7     0.00000195     -1093.4773251780 -4.26E-04
    28 Broy./Diag. 0.10E+00  160.3     0.00000863     -1093.4769250455  4.00E-04
    29 Broy./Diag. 0.10E+00  148.3     0.00000099     -1093.4771050197 -1.80E-04
    30 Broy./Diag. 0.10E+00  150.8     0.00000484     -1093.4775498067 -4.45E-04
    31 Broy./Diag. 0.10E+00  164.5     0.00000073     -1093.4778145335 -2.65E-04
    32 Broy./Diag. 0.10E+00  146.0     0.00000297     -1093.4780279801 -2.13E-04
    33 Broy./Diag. 0.10E+00  149.7     0.00000025     -1093.4781085784 -8.06E-05

  *** SCF run converged in    33 steps ***


  Electronic density on regular grids:       -768.0000000000        0.0000000000
  Core density on regular grids:              767.9999999993       -0.0000000007
  Total charge density on r-space grids:       -0.0000000006
  Total charge density g-space grids:          -0.0000000006

  Overlap energy of the core charge distribution:               0.00003001761439
  Self energy of the core charge distribution:              -2560.32152193892080
  Core Hamiltonian energy:                                    800.90565391884763
  Hartree energy:                                            1001.35602606372947
  Exchange-correlation energy:                               -335.17460449705163
  Dispersion energy:                                           -0.24369199396542
  Electronic entropic energy:                                  -0.00000014868737
  Fermi energy:                                                -0.11874253604386

  Total energy:                                             -1093.47810857843388

  outer SCF iter =    1 RMS gradient =   0.25E-06 energy =      -1093.4781085784
  outer SCF loop converged in   1 iterations or   33 steps


 *** WARNING in qs_loc_utils.F:1500 :: User requested the calculation of ***
 *** the localized wavefunction but the section LOCALIZE was not         ***
 *** specified. Localization will not be performed!                      ***


 -------------------------------------------------------------------------------
 -                                                                             -
 -  BSSE CALCULATION         FRAGMENT CONF: 01        FRAGMENT SUBCONF: 01     -
 -                           CHARGE =     0           MULTIPLICITY =     0     -
 -                                                                             -
 -                 ATOM INDEX                              ATOM NAME           -
 -                 ----------                              ---------           -
 -                    193                                   Na                 -
 -------------------------------------------------------------------------------

 *******************************************************************************
 *******************************************************************************
 **                                                                           **
 **     #####                         ##              ##                      **
 **    ##   ##            ##          ##              ##                      **
 **   ##     ##                       ##            ######                    **
 **   ##     ##  ##   ##  ##   #####  ##  ##   ####   ##    #####    #####    **
 **   ##     ##  ##   ##  ##  ##      ## ##   ##      ##   ##   ##  ##   ##   **
 **   ##  ## ##  ##   ##  ##  ##      ####     ###    ##   ######   ######    **
 **    ##  ###   ##   ##  ##  ##      ## ##      ##   ##   ##       ##        **
 **     #######   #####   ##   #####  ##  ##  ####    ##    #####   ##        **
 **           ##                                                    ##        **
 **                                                                           **
 **                                                ... make the atoms dance   **
 **                                                                           **
 **            Copyright (C) by CP2K developers group (2000-2022)             **
 **                      J. Chem. Phys. 152, 194103 (2020)                    **
 **                                                                           **
 *******************************************************************************

 *** WARNING in qs_environment.F:1486 :: More added MOs requested than     ***
 *** available. The full set of unoccupied MOs will be used. Use           ***
 *** 'ADDED_MOS -1' to always use all available MOs and to get rid of this ***
 *** warning.                                                              ***



 TOTAL NUMBERS AND MAXIMUM NUMBERS

  Total number of            - Atomic kinds:                                   1
                             - Atoms:                                          1
                             - Shell sets:                                     1
                             - Shells:                                         5
                             - Primitive Cartesian functions:                  7
                             - Cartesian basis functions:                      9
                             - Spherical basis functions:                      9

  Maximum angular momentum of- Orbital basis functions:                        1
                             - Local part of the GTH pseudopotential:          2
                             - Non-local part of the GTH pseudopotential:      1


 SCF PARAMETERS         Density guess:                                    ATOMIC
                        --------------------------------------------------------
                        max_scf:                                             300
                        max_scf_history:                                       0
                        max_diis:                                              4
                        --------------------------------------------------------
                        eps_scf:                                        3.00E-07
                        eps_scf_history:                                0.00E+00
                        eps_diis:                                       1.00E-01
                        eps_eigval:                                     1.00E-05
                        --------------------------------------------------------
                        level_shift [a.u.]:                             0.000000
                        added MOs                                         4    0
                        --------------------------------------------------------
                        Mixing method:                            BROYDEN_MIXING
                                                charge density mixing in g-space
                        --------------------------------------------------------
                        Smear method:                                FERMI_DIRAC
                        Electronic temperature [K]:                        300.0
                        Electronic temperature [a.u.]:                  9.50E-04
                        Accuracy threshold:                             1.00E-10
                        --------------------------------------------------------
                        Outer loop SCF in use 
                        No variables optimised in outer loop
                        eps_scf                                         1.00E-06
                        max_scf                                              300
                        DIIS optimization
                        DIIS buffer length                                     3
                        step_size                                       5.00E-01

 Number of electrons:                                                          9
 Number of occupied orbitals:                                                  5
 Number of molecular orbitals:                                                 9

 Number of orbital functions:                                                  9
 Number of independent orbital functions:                                      9

 Extrapolation method: initial_guess


 SCF WAVEFUNCTION OPTIMIZATION

  Step     Update method      Time    Convergence         Total energy    Change
  ------------------------------------------------------------------------------
     1 NoMix/Diag. 0.10E+00    6.4     0.02074060       -47.1659732587 -4.72E+01
     2 Broy./Diag. 0.10E+00    3.3     0.00009816       -47.1223718363  4.36E-02
     3 Broy./Diag. 0.10E+00    8.0     0.00101259       -47.1638447005 -4.15E-02
     4 Broy./Diag. 0.10E+00    8.9     0.00002409       -47.1716245818 -7.78E-03
     5 Broy./Diag. 0.10E+00    9.8     0.00025748       -47.1716483866 -2.38E-05
     6 Broy./Diag. 0.10E+00    9.0     0.00000829       -47.1717839656 -1.36E-04
     7 Broy./Diag. 0.10E+00    9.2     0.00014412       -47.1700632231  1.72E-03
     8 Broy./Diag. 0.10E+00    8.4     0.00001855       -47.1690961313  9.67E-04
     9 Broy./Diag. 0.10E+00    9.1     0.00019316       -47.1684510098  6.45E-04
    10 Broy./Diag. 0.10E+00    7.4     0.00000937       -47.1680701388  3.81E-04
    11 Broy./Diag. 0.10E+00    9.3     0.00009220       -47.1678830180  1.87E-04
    12 Broy./Diag. 0.10E+00    7.8     0.00000208       -47.1678358630  4.72E-05
    13 Broy./Diag. 0.10E+00    8.0     0.00000541       -47.1679489242 -1.13E-04
    14 Broy./Diag. 0.10E+00    8.4     0.00000080       -47.1679691201 -2.02E-05
    15 Broy./Diag. 0.10E+00    8.5     0.00001123       -47.1678007182  1.68E-04
    16 Broy./Diag. 0.10E+00    8.7     0.00000235       -47.1677776755  2.30E-05
    17 Broy./Diag. 0.10E+00    7.8     0.00000228       -47.1678228495 -4.52E-05
    18 Broy./Diag. 0.10E+00    8.5     0.00000201       -47.1678670989 -4.42E-05
    19 Broy./Diag. 0.10E+00    8.6     0.00000185       -47.1678858282 -1.87E-05
    20 Broy./Diag. 0.10E+00    8.1     0.00000196       -47.1678807963  5.03E-06
    21 Broy./Diag. 0.10E+00    8.4     0.00000277       -47.1678599498  2.08E-05
    22 Broy./Diag. 0.10E+00    8.8     0.00000352       -47.1678345730  2.54E-05
    23 Broy./Diag. 0.10E+00    8.1     0.00000340       -47.1678147883  1.98E-05
    24 Broy./Diag. 0.10E+00    7.5     0.00000086       -47.1678138274  9.61E-07
    25 Broy./Diag. 0.10E+00    8.0     0.00000038       -47.1678234445 -9.62E-06
    26 Broy./Diag. 0.10E+00    8.5     0.00000037       -47.1678179868  5.46E-06
    27 Broy./Diag. 0.10E+00    9.1     0.00000075       -47.1678054938  1.25E-05
    28 Broy./Diag. 0.10E+00    8.8     0.00000075       -47.1678009911  4.50E-06
    29 Broy./Diag. 0.10E+00    9.3     0.00000059       -47.1678012455 -2.54E-07
    30 Broy./Diag. 0.10E+00    8.2     0.00000028       -47.1678042280 -2.98E-06

  *** SCF run converged in    30 steps ***


  Electronic density on regular grids:         -9.0004220198       -0.0004220198
  Core density on regular grids:                9.0000000000       -0.0000000000
  Total charge density on r-space grids:       -0.0004220198
  Total charge density g-space grids:          -0.0004220198

  Overlap energy of the core charge distribution:               0.00000000000000
  Self energy of the core charge distribution:                -96.60649019442629
  Core Hamiltonian energy:                                     29.76253667500477
  Hartree energy:                                              26.72186747100862
  Exchange-correlation energy:                                 -7.04439254140256
  Dispersion energy:                                           -0.00000859667287
  Electronic entropic energy:                                  -0.00131704147593
  Fermi energy:                                                -0.09146925285852

  Total energy:                                               -47.16780422796425

  outer SCF iter =    1 RMS gradient =   0.28E-06 energy =        -47.1678042280
  outer SCF loop converged in   1 iterations or   30 steps


 *** WARNING in qs_loc_utils.F:1500 :: User requested the calculation of ***
 *** the localized wavefunction but the section LOCALIZE was not         ***
 *** specified. Localization will not be performed!                      ***


 -------------------------------------------------------------------------------
 -                                                                             -
 -  BSSE CALCULATION         FRAGMENT CONF: 11        FRAGMENT SUBCONF: 10     -
 -                           CHARGE =     0           MULTIPLICITY =     0     -
 -                                                                             -
 -                 ATOM INDEX                              ATOM NAME           -
 -                 ----------                              ---------           -
 -                      1                                   C                  -
 -                      2                                   C                  -
 -                      3                                   C                  -
 -                      4                                   C                  -
 -                      5                                   C                  -
 -                      6                                   C                  -
 -                      7                                   C                  -
 -                      8                                   C                  -
 -                      9                                   C                  -
 -                     10                                   C                  -
 -                     11                                   C                  -
 -                     12                                   C                  -
 -                     13                                   C                  -
 -                     14                                   C                  -
 -                     15                                   C                  -
 -                     16                                   C                  -
 -                     17                                   C                  -
 -                     18                                   C                  -
 -                     19                                   C                  -
 -                     20                                   C                  -
 -                     21                                   C                  -
 -                     22                                   C                  -
 -                     23                                   C                  -
 -                     24                                   C                  -
 -                     25                                   C                  -
 -                     26                                   C                  -
 -                     27                                   C                  -
 -                     28                                   C                  -
 -                     29                                   C                  -
 -                     30                                   C                  -
 -                     31                                   C                  -
 -                     32                                   C                  -
 -                     33                                   C                  -
 -                     34                                   C                  -
 -                     35                                   C                  -
 -                     36                                   C                  -
 -                     37                                   C                  -
 -                     38                                   C                  -
 -                     39                                   C                  -
 -                     40                                   C                  -
 -                     41                                   C                  -
 -                     42                                   C                  -
 -                     43                                   C                  -
 -                     44                                   C                  -
 -                     45                                   C                  -
 -                     46                                   C                  -
 -                     47                                   C                  -
 -                     48                                   C                  -
 -                     49                                   C                  -
 -                     50                                   C                  -
 -                     51                                   C                  -
 -                     52                                   C                  -
 -                     53                                   C                  -
 -                     54                                   C                  -
 -                     55                                   C                  -
 -                     56                                   C                  -
 -                     57                                   C                  -
 -                     58                                   C                  -
 -                     59                                   C                  -
 -                     60                                   C                  -
 -                     61                                   C                  -
 -                     62                                   C                  -
 -                     63                                   C                  -
 -                     64                                   C                  -
 -                     65                                   C                  -
 -                     66                                   C                  -
 -                     67                                   C                  -
 -                     68                                   C                  -
 -                     69                                   C                  -
 -                     70                                   C                  -
 -                     71                                   C                  -
 -                     72                                   C                  -
 -                     73                                   C                  -
 -                     74                                   C                  -
 -                     75                                   C                  -
 -                     76                                   C                  -
 -                     77                                   C                  -
 -                     78                                   C                  -
 -                     79                                   C                  -
 -                     80                                   C                  -
 -                     81                                   C                  -
 -                     82                                   C                  -
 -                     83                                   C                  -
 -                     84                                   C                  -
 -                     85                                   C                  -
 -                     86                                   C                  -
 -                     87                                   C                  -
 -                     88                                   C                  -
 -                     89                                   C                  -
 -                     90                                   C                  -
 -                     91                                   C                  -
 -                     92                                   C                  -
 -                     93                                   C                  -
 -                     94                                   C                  -
 -                     95                                   C                  -
 -                     96                                   C                  -
 -                     97                                   C                  -
 -                     98                                   C                  -
 -                     99                                   C                  -
 -                    100                                   C                  -
 -                    101                                   C                  -
 -                    102                                   C                  -
 -                    103                                   C                  -
 -                    104                                   C                  -
 -                    105                                   C                  -
 -                    106                                   C                  -
 -                    107                                   C                  -
 -                    108                                   C                  -
 -                    109                                   C                  -
 -                    110                                   C                  -
 -                    111                                   C                  -
 -                    112                                   C                  -
 -                    113                                   C                  -
 -                    114                                   C                  -
 -                    115                                   C                  -
 -                    116                                   C                  -
 -                    117                                   C                  -
 -                    118                                   C                  -
 -                    119                                   C                  -
 -                    120                                   C                  -
 -                    121                                   C                  -
 -                    122                                   C                  -
 -                    123                                   C                  -
 -                    124                                   C                  -
 -                    125                                   C                  -
 -                    126                                   C                  -
 -                    127                                   C                  -
 -                    128                                   C                  -
 -                    129                                   C                  -
 -                    130                                   C                  -
 -                    131                                   C                  -
 -                    132                                   C                  -
 -                    133                                   C                  -
 -                    134                                   C                  -
 -                    135                                   C                  -
 -                    136                                   C                  -
 -                    137                                   C                  -
 -                    138                                   C                  -
 -                    139                                   C                  -
 -                    140                                   C                  -
 -                    141                                   C                  -
 -                    142                                   C                  -
 -                    143                                   C                  -
 -                    144                                   C                  -
 -                    145                                   C                  -
 -                    146                                   C                  -
 -                    147                                   C                  -
 -                    148                                   C                  -
 -                    149                                   C                  -
 -                    150                                   C                  -
 -                    151                                   C                  -
 -                    152                                   C                  -
 -                    153                                   C                  -
 -                    154                                   C                  -
 -                    155                                   C                  -
 -                    156                                   C                  -
 -                    157                                   C                  -
 -                    158                                   C                  -
 -                    159                                   C                  -
 -                    160                                   C                  -
 -                    161                                   C                  -
 -                    162                                   C                  -
 -                    163                                   C                  -
 -                    164                                   C                  -
 -                    165                                   C                  -
 -                    166                                   C                  -
 -                    167                                   C                  -
 -                    168                                   C                  -
 -                    169                                   C                  -
 -                    170                                   C                  -
 -                    171                                   C                  -
 -                    172                                   C                  -
 -                    173                                   C                  -
 -                    174                                   C                  -
 -                    175                                   C                  -
 -                    176                                   C                  -
 -                    177                                   C                  -
 -                    178                                   C                  -
 -                    179                                   C                  -
 -                    180                                   C                  -
 -                    181                                   C                  -
 -                    182                                   C                  -
 -                    183                                   C                  -
 -                    184                                   C                  -
 -                    185                                   C                  -
 -                    186                                   C                  -
 -                    187                                   C                  -
 -                    188                                   C                  -
 -                    189                                   C                  -
 -                    190                                   C                  -
 -                    191                                   C                  -
 -                    192                                   C                  -
 -                    193                                   Na_ghost           -
 -------------------------------------------------------------------------------

 *******************************************************************************
 *******************************************************************************
 **                                                                           **
 **     #####                         ##              ##                      **
 **    ##   ##            ##          ##              ##                      **
 **   ##     ##                       ##            ######                    **
 **   ##     ##  ##   ##  ##   #####  ##  ##   ####   ##    #####    #####    **
 **   ##     ##  ##   ##  ##  ##      ## ##   ##      ##   ##   ##  ##   ##   **
 **   ##  ## ##  ##   ##  ##  ##      ####     ###    ##   ######   ######    **
 **    ##  ###   ##   ##  ##  ##      ## ##      ##   ##   ##       ##        **
 **     #######   #####   ##   #####  ##  ##  ####    ##    #####   ##        **
 **           ##                                                    ##        **
 **                                                                           **
 **                                                ... make the atoms dance   **
 **                                                                           **
 **            Copyright (C) by CP2K developers group (2000-2022)             **
 **                      J. Chem. Phys. 152, 194103 (2020)                    **
 **                                                                           **
 *******************************************************************************


 TOTAL NUMBERS AND MAXIMUM NUMBERS

  Total number of            - Atomic kinds:                                   2
                             - Atoms:                                        193
                             - Shell sets:                                   193
                             - Shells:                                       965
                             - Primitive Cartesian functions:                967
                             - Cartesian basis functions:                   2697
                             - Spherical basis functions:                   2505

  Maximum angular momentum of- Orbital basis functions:                        2
                             - Local part of the GTH pseudopotential:          2
                             - Non-local part of the GTH pseudopotential:      0


 SCF PARAMETERS         Density guess:                                    ATOMIC
                        --------------------------------------------------------
                        max_scf:                                             300
                        max_scf_history:                                       0
                        max_diis:                                              4
                        --------------------------------------------------------
                        eps_scf:                                        3.00E-07
                        eps_scf_history:                                0.00E+00
                        eps_diis:                                       1.00E-01
                        eps_eigval:                                     1.00E-05
                        --------------------------------------------------------
                        level_shift [a.u.]:                             0.000000
                        added MOs                                       100    0
                        --------------------------------------------------------
                        Mixing method:                            BROYDEN_MIXING
                                                charge density mixing in g-space
                        --------------------------------------------------------
                        Smear method:                                FERMI_DIRAC
                        Electronic temperature [K]:                        300.0
                        Electronic temperature [a.u.]:                  9.50E-04
                        Accuracy threshold:                             1.00E-10
                        --------------------------------------------------------
                        Outer loop SCF in use 
                        No variables optimised in outer loop
                        eps_scf                                         1.00E-06
                        max_scf                                              300
                        DIIS optimization
                        DIIS buffer length                                     3
                        step_size                                       5.00E-01

 Number of electrons:                                                        768
 Number of occupied orbitals:                                                384
 Number of molecular orbitals:                                               484

 Number of orbital functions:                                               2505
 Number of independent orbital functions:                                   2505

 Extrapolation method: initial_guess


 SCF WAVEFUNCTION OPTIMIZATION

  Step     Update method      Time    Convergence         Total energy    Change
  ------------------------------------------------------------------------------
     1 NoMix/Diag. 0.10E+00  107.2     0.92601944     -1085.8534327510 -1.09E+03
     2 Broy./Diag. 0.10E+00  133.3     0.00228795     -1044.4916179087  4.14E+01
     3 Broy./Diag. 0.10E+00  137.9     0.02544303     -1076.5969543417 -3.21E+01
     4 Broy./Diag. 0.10E+00  172.4     0.00034871     -1090.2449019427 -1.36E+01
     5 Broy./Diag. 0.10E+00  181.0     0.00224470     -1090.8460357222 -6.01E-01
     6 Broy./Diag. 0.10E+00  158.5     0.00009504     -1092.0251580325 -1.18E+00
     7 Broy./Diag. 0.10E+00  160.3     0.00074011     -1092.5455187848 -5.20E-01
     8 Broy./Diag. 0.10E+00  161.5     0.00004667     -1092.9093046445 -3.64E-01
     9 Broy./Diag. 0.10E+00  159.1     0.00054339     -1093.0853141983 -1.76E-01
    10 Broy./Diag. 0.10E+00  159.8     0.00005140     -1093.3046668393 -2.19E-01
    11 Broy./Diag. 0.10E+00  148.5     0.00047931     -1093.2694125931  3.53E-02
    12 Broy./Diag. 0.10E+00  149.0     0.00003534     -1093.3484023191 -7.90E-02
    13 Broy./Diag. 0.10E+00  183.6     0.00039235     -1093.3850080656 -3.66E-02
    14 Broy./Diag. 0.10E+00  179.2     0.00009029     -1093.4261820878 -4.12E-02
    15 Broy./Diag. 0.10E+00  160.2     0.00025674     -1093.4608677436 -3.47E-02
    16 Broy./Diag. 0.10E+00  166.4     0.00007452     -1093.4810473734 -2.02E-02
    17 Broy./Diag. 0.10E+00  153.9     0.00008873     -1093.4668640126  1.42E-02
    18 Broy./Diag. 0.10E+00  163.5     0.00002365     -1093.4579573211  8.91E-03
    19 Broy./Diag. 0.10E+00  172.0     0.00006132     -1093.4587402390 -7.83E-04
    20 Broy./Diag. 0.10E+00  160.1     0.00003203     -1093.4669652583 -8.23E-03
    21 Broy./Diag. 0.10E+00  163.9     0.00002668     -1093.4727580671 -5.79E-03
    22 Broy./Diag. 0.10E+00  174.3     0.00003584     -1093.4771395649 -4.38E-03
    23 Broy./Diag. 0.10E+00  164.0     0.00000833     -1093.4792068089 -2.07E-03
    24 Broy./Diag. 0.10E+00  152.9     0.00001926     -1093.4795968890 -3.90E-04
    25 Broy./Diag. 0.10E+00  163.4     0.00000303     -1093.4798429736 -2.46E-04
    26 Broy./Diag. 0.10E+00  175.6     0.00001249     -1093.4792030750  6.40E-04
    27 Broy./Diag. 0.10E+00  175.2     0.00000240     -1093.4793885824 -1.86E-04
    28 Broy./Diag. 0.10E+00  152.1     0.00001200     -1093.4790039780  3.85E-04
    29 Broy./Diag. 0.10E+00  157.8     0.00000094     -1093.4789948700  9.11E-06
    30 Broy./Diag. 0.10E+00  148.7     0.00000593     -1093.4792346451 -2.40E-04
    31 Broy./Diag. 0.10E+00  170.5     0.00000064     -1093.4792611267 -2.65E-05
    32 Broy./Diag. 0.10E+00  163.8     0.00000334     -1093.4793942004 -1.33E-04
    33 Broy./Diag. 0.10E+00  183.7     0.00000029     -1093.4794164104 -2.22E-05

  *** SCF run converged in    33 steps ***


  Electronic density on regular grids:       -767.9999999983        0.0000000017
  Core density on regular grids:              767.9999999993       -0.0000000007
  Total charge density on r-space grids:        0.0000000010
  Total charge density g-space grids:           0.0000000010

  Overlap energy of the core charge distribution:               0.00003001761439
  Self energy of the core charge distribution:              -2560.32152193892080
  Core Hamiltonian energy:                                    800.90014573339204
  Hartree energy:                                            1001.36187062898227
  Exchange-correlation energy:                               -335.17624870877398
  Dispersion energy:                                           -0.24369199396542
  Electronic entropic energy:                                  -0.00000014871064
  Fermi energy:                                                -0.11869413538810

  Total energy:                                             -1093.47941641038233

  outer SCF iter =    1 RMS gradient =   0.29E-06 energy =      -1093.4794164104
  outer SCF loop converged in   1 iterations or   33 steps


 *** WARNING in qs_loc_utils.F:1500 :: User requested the calculation of ***
 *** the localized wavefunction but the section LOCALIZE was not         ***
 *** specified. Localization will not be performed!                      ***


 -------------------------------------------------------------------------------
 -                                                                             -
 -  BSSE CALCULATION         FRAGMENT CONF: 11        FRAGMENT SUBCONF: 01     -
 -                           CHARGE =     0           MULTIPLICITY =     0     -
 -                                                                             -
 -                 ATOM INDEX                              ATOM NAME           -
 -                 ----------                              ---------           -
 -                      1                                   C_ghost            -
 -                      2                                   C_ghost            -
 -                      3                                   C_ghost            -
 -                      4                                   C_ghost            -
 -                      5                                   C_ghost            -
 -                      6                                   C_ghost            -
 -                      7                                   C_ghost            -
 -                      8                                   C_ghost            -
 -                      9                                   C_ghost            -
 -                     10                                   C_ghost            -
 -                     11                                   C_ghost            -
 -                     12                                   C_ghost            -
 -                     13                                   C_ghost            -
 -                     14                                   C_ghost            -
 -                     15                                   C_ghost            -
 -                     16                                   C_ghost            -
 -                     17                                   C_ghost            -
 -                     18                                   C_ghost            -
 -                     19                                   C_ghost            -
 -                     20                                   C_ghost            -
 -                     21                                   C_ghost            -
 -                     22                                   C_ghost            -
 -                     23                                   C_ghost            -
 -                     24                                   C_ghost            -
 -                     25                                   C_ghost            -
 -                     26                                   C_ghost            -
 -                     27                                   C_ghost            -
 -                     28                                   C_ghost            -
 -                     29                                   C_ghost            -
 -                     30                                   C_ghost            -
 -                     31                                   C_ghost            -
 -                     32                                   C_ghost            -
 -                     33                                   C_ghost            -
 -                     34                                   C_ghost            -
 -                     35                                   C_ghost            -
 -                     36                                   C_ghost            -
 -                     37                                   C_ghost            -
 -                     38                                   C_ghost            -
 -                     39                                   C_ghost            -
 -                     40                                   C_ghost            -
 -                     41                                   C_ghost            -
 -                     42                                   C_ghost            -
 -                     43                                   C_ghost            -
 -                     44                                   C_ghost            -
 -                     45                                   C_ghost            -
 -                     46                                   C_ghost            -
 -                     47                                   C_ghost            -
 -                     48                                   C_ghost            -
 -                     49                                   C_ghost            -
 -                     50                                   C_ghost            -
 -                     51                                   C_ghost            -
 -                     52                                   C_ghost            -
 -                     53                                   C_ghost            -
 -                     54                                   C_ghost            -
 -                     55                                   C_ghost            -
 -                     56                                   C_ghost            -
 -                     57                                   C_ghost            -
 -                     58                                   C_ghost            -
 -                     59                                   C_ghost            -
 -                     60                                   C_ghost            -
 -                     61                                   C_ghost            -
 -                     62                                   C_ghost            -
 -                     63                                   C_ghost            -
 -                     64                                   C_ghost            -
 -                     65                                   C_ghost            -
 -                     66                                   C_ghost            -
 -                     67                                   C_ghost            -
 -                     68                                   C_ghost            -
 -                     69                                   C_ghost            -
 -                     70                                   C_ghost            -
 -                     71                                   C_ghost            -
 -                     72                                   C_ghost            -
 -                     73                                   C_ghost            -
 -                     74                                   C_ghost            -
 -                     75                                   C_ghost            -
 -                     76                                   C_ghost            -
 -                     77                                   C_ghost            -
 -                     78                                   C_ghost            -
 -                     79                                   C_ghost            -
 -                     80                                   C_ghost            -
 -                     81                                   C_ghost            -
 -                     82                                   C_ghost            -
 -                     83                                   C_ghost            -
 -                     84                                   C_ghost            -
 -                     85                                   C_ghost            -
 -                     86                                   C_ghost            -
 -                     87                                   C_ghost            -
 -                     88                                   C_ghost            -
 -                     89                                   C_ghost            -
 -                     90                                   C_ghost            -
 -                     91                                   C_ghost            -
 -                     92                                   C_ghost            -
 -                     93                                   C_ghost            -
 -                     94                                   C_ghost            -
 -                     95                                   C_ghost            -
[...]
    22 Broy./Diag. 0.10E+00  147.4     0.00006865     -1140.6826650128 -5.25E-03
    23 Broy./Diag. 0.10E+00  160.2     0.00002858     -1140.6857774088 -3.11E-03
    24 Broy./Diag. 0.10E+00  166.5     0.00006851     -1140.6852322975  5.45E-04
    25 Broy./Diag. 0.10E+00  157.5     0.00003778     -1140.6838736563  1.36E-03
    26 Broy./Diag. 0.10E+00  162.9     0.00004240     -1140.6825587561  1.31E-03
    27 Broy./Diag. 0.10E+00  163.9     0.00001577     -1140.6849725425 -2.41E-03
    28 Broy./Diag. 0.10E+00  184.4     0.00003610     -1140.6892736585 -4.30E-03
    29 Broy./Diag. 0.10E+00  190.5     0.00002821     -1140.6911243172 -1.85E-03
    30 Broy./Diag. 0.10E+00  141.6     0.00009015     -1140.6909855755  1.39E-04
    31 Broy./Diag. 0.10E+00  160.8     0.00000264     -1140.6902617156  7.24E-04
    32 Broy./Diag. 0.10E+00  167.6     0.00001005     -1140.6888107970  1.45E-03
    33 Broy./Diag. 0.10E+00  147.1     0.00000561     -1140.6884369299  3.74E-04
    34 Broy./Diag. 0.10E+00  170.2     0.00002894     -1140.6884538829 -1.70E-05
    35 Broy./Diag. 0.10E+00  159.7     0.00001987     -1140.6888706372 -4.17E-04
    36 Broy./Diag. 0.10E+00  167.5     0.00002194     -1140.6891891812 -3.19E-04
    37 Broy./Diag. 0.10E+00  144.5     0.00001491     -1140.6894063281 -2.17E-04
    38 Broy./Diag. 0.10E+00  137.8     0.00000634     -1140.6891734107  2.33E-04
    39 Broy./Diag. 0.10E+00  157.2     0.00000315     -1140.6889630655  2.10E-04
    40 Broy./Diag. 0.10E+00  183.4     0.00000617     -1140.6889555010  7.56E-06
    41 Broy./Diag. 0.10E+00  185.3     0.00000160     -1140.6889883955 -3.29E-05
    42 Broy./Diag. 0.10E+00  140.5     0.00000104     -1140.6890191972 -3.08E-05
    43 Broy./Diag. 0.10E+00  158.7     0.00000113     -1140.6890533474 -3.42E-05
    44 Broy./Diag. 0.10E+00  167.0     0.00000052     -1140.6890593400 -5.99E-06
    45 Broy./Diag. 0.10E+00  166.7     0.00000133     -1140.6890320383  2.73E-05
    46 Broy./Diag. 0.10E+00  136.2     0.00000057     -1140.6890483754 -1.63E-05
    47 Broy./Diag. 0.10E+00  169.4     0.00000100     -1140.6890843377 -3.60E-05
    48 Broy./Diag. 0.10E+00  150.5     0.00000036     -1140.6890999035 -1.56E-05
    49 Broy./Diag. 0.10E+00  127.8     0.00000058     -1140.6891076212 -7.72E-06
    50 Broy./Diag. 0.10E+00  167.9     0.00000007     -1140.6891036316  3.99E-06

  *** SCF run converged in    50 steps ***


  Electronic density on regular grids:       -777.0004244043       -0.0004244043
  Core density on regular grids:              776.9999999993       -0.0000000007
  Total charge density on r-space grids:       -0.0004244050
  Total charge density g-space grids:          -0.0004244050

  Overlap energy of the core charge distribution:               0.00003001761439
  Self energy of the core charge distribution:              -2656.92801213334678
  Core Hamiltonian energy:                                    831.11547275953058
  Hartree energy:                                            1027.85792987927584
  Exchange-correlation energy:                               -342.48495509886743
  Dispersion energy:                                           -0.24743016231561
  Electronic entropic energy:                                  -0.00213889345971
  Fermi energy:                                                -0.09953071181829

  Total energy:                                             -1140.68910363159353

  outer SCF iter =    1 RMS gradient =   0.71E-07 energy =      -1140.6891036316
  outer SCF loop converged in   1 iterations or   50 steps


 *** WARNING in qs_loc_utils.F:1500 :: User requested the calculation of ***
 *** the localized wavefunction but the section LOCALIZE was not         ***
 *** specified. Localization will not be performed!                      ***


 -------------------------------------------------------------------------------
 -                                                                             -
 -                                 BSSE RESULTS                                -
 -                                                                             -
 -                 CP-corrected Total energy:    -1140.687186                  -
 -                                                                             -
 -                       1-body contribution:    -1093.478109                  -
 -                       1-body contribution:      -47.167804                  -
 -                                                                             -
 -                       2-body contribution:       -0.041273                  -
 -                 BSSE-free interaction energy:       -0.041273               -
 -------------------------------------------------------------------------------

 -------------------------------------------------------------------------------
 -                                                                             -
 -                                DBCSR STATISTICS                             -
 -                                                                             -
 -------------------------------------------------------------------------------
 COUNTER                                    TOTAL       BLAS       SMM       ACC
 flops     9 x     9 x     9                86022     100.0%      0.0%      0.0%
 flops     9 x     9 x    32               451008     100.0%      0.0%      0.0%
 flops     9 x     9 x   100               534600     100.0%      0.0%      0.0%
 flops     9 x     9 x   105               850500     100.0%      0.0%      0.0%
 flops    13 x     9 x     9              4336254     100.0%      0.0%      0.0%
 flops     9 x    13 x     9              4519476     100.0%      0.0%      0.0%
 flops     9 x     9 x   128              5163264     100.0%      0.0%      0.0%
 flops    13 x     9 x    32             46253376     100.0%      0.0%      0.0%
 flops     9 x    13 x    32             48207744     100.0%      0.0%      0.0%
 flops    13 x     9 x   100             54826200     100.0%      0.0%      0.0%
 flops     9 x    13 x   100             57142800     100.0%      0.0%      0.0%
 flops    13 x     9 x   105             87223500     100.0%      0.0%      0.0%
 flops     9 x    13 x   105             90909000     100.0%      0.0%      0.0%
 flops    13 x     9 x   128            529521408     100.0%      0.0%      0.0%
 flops     9 x    13 x   128            551895552     100.0%      0.0%      0.0%
 flops    13 x    13 x     9            960958674     100.0%      0.0%      0.0%
 flops    13 x    13 x    32          10250225856     100.0%      0.0%      0.0%
 flops    13 x    13 x   105          19329628500     100.0%      0.0%      0.0%
 flops    13 x    13 x   100          24300104400     100.0%      0.0%      0.0%
 flops    13 x    13 x   128         164003613696     100.0%      0.0%      0.0%
 flops inhomo. stacks                           0       0.0%      0.0%      0.0%
 flops total                       220.326452E+09     100.0%      0.0%      0.0%
 flops max/rank                     14.406509E+09     100.0%      0.0%      0.0%
 matmuls inhomo. stacks                         0       0.0%      0.0%      0.0%
 matmuls total                            6383378     100.0%      0.0%      0.0%
 number of processed stacks                 12894     100.0%      0.0%      0.0%
 average stack size                                   495.1       0.0       0.0
 marketing flops                   568.117887E+09
 -------------------------------------------------------------------------------
 # multiplications                            175
 max memory usage/rank               1.011790E+09
 # max total images/rank                        1
 # max 3D layers                                1
 # MPI messages exchanged                   16800
 MPI messages size (bytes):
  total size                         7.140159E+09
  min size                           0.000000E+00
  max size                         648.192000E+03
  average size                     425.009500E+03
 MPI breakdown and total messages size (bytes):
             size <=      128                2700                        0
       128 < size <=     8192                 180                   116640
      8192 < size <=    32768                   0                        0
     32768 < size <=   131072                 696                 31382640
    131072 < size <=  4194304               13224               7108662816
   4194304 < size <= 16777216                   0                        0
  16777216 < size                               0                        0
 -------------------------------------------------------------------------------
 -                                                                             -
 -                      DBCSR MESSAGE PASSING PERFORMANCE                      -
 -                                                                             -
 -------------------------------------------------------------------------------
 ROUTINE             CALLS      AVE VOLUME [Bytes]
 MP_Bcast               21                     12.
 MP_Allreduce         1289                      9.
 MP_Alltoall          4960                 435275.
 MP_ISend             2800                 171470.
 MP_IRecv             2800                 158247.
 -------------------------------------------------------------------------------

 -------------------------------------------------------------------------------
 -                                                                             -
 -                                DBM STATISTICS                               -
 -                                                                             -
 -------------------------------------------------------------------------------
    M  x    N  x    K                                          COUNT     PERCENT
 -------------------------------------------------------------------------------

 -------------------------------------------------------------------------------
 -                                                                             -
 -                                GRID STATISTICS                              -
 -                                                                             -
 -------------------------------------------------------------------------------
 LP    KERNEL             BACKEND                              COUNT     PERCENT
 4     collocate ortho    REF                               16860095      50.15%
 4     integrate ortho    REF                               16407475      48.80%
 3     collocate ortho    REF                                 167325       0.50%
 3     integrate ortho    REF                                 162960       0.48%
 0     collocate general  REF                                   9264       0.03%
 2     collocate ortho    REF                                   7446       0.02%
 2     integrate ortho    REF                                   7242       0.02%
 -------------------------------------------------------------------------------

 MEMORY| Estimated peak process memory [MiB]                                 965

 -------------------------------------------------------------------------------
 -                                                                             -
 -                         MESSAGE PASSING PERFORMANCE                         -
 -                                                                             -
 -------------------------------------------------------------------------------

 ROUTINE             CALLS      AVE VOLUME [Bytes]
 MP_Group               24
 MP_Bcast              503                1920739.
 MP_Allreduce         2614                   1845.
 MP_Sync               229
 MP_Alltoall          2375               27050834.
 MP_SendRecv          7500                 231782.
 MP_ISendRecv         5250                 187520.
 MP_Wait             13115
 MP_comm_split          30
 MP_ISend             5720                1534132.
 MP_IRecv             5720                1533884.
 MP_Recv               115                 613153.
 -------------------------------------------------------------------------------


 -------------------------------------------------------------------------------
 -                                                                             -
 -                           R E F E R E N C E S                               -
 -                                                                             -
 -------------------------------------------------------------------------------
 
 CP2K version 2023.1, the CP2K developers group (2023).
 CP2K is freely available from https://www.cp2k.org/ .

 Kuehne,Thomas D.; Iannuzzi,Marcella; Del Ben,Mauro;
 Rybkin,Vladimir V.; Seewald,Patrick; Stein,Frederick; Laino,Teodoro;
 Khaliullin,Rustam Z.; Schuett,Ole; Schiffmann,Florian; Golze,Dorothea;
 Wilhelm,Jan; Chulkov,Sergey; Bani-Hashemian,Mohammad Hossein;
 Weber,Valery; Borstnik,Urban; Taillefumier,Mathieu;
 Jakobovits,Alice Shoshana; Lazzaro,Alfio; Pabst,Hans; Mueller,Tiziano;
 Schade,Robert; Guidon,Manuel; Andermatt,Samuel; Holmberg,Nico;
 Schenter,Gregory K.; Hehn,Anna; Bussy,Augustin; Belleflamme,Fabian;
 Tabacchi,Gloria; Gloess,Andreas; Lass,Michael; Bethune,Iain;
 Mundy,Christopher J.; Plessl,Christian; Watkins,Matt;
 VandeVondele,Joost; Krack,Matthias; Hutter,Juerg. 
 The Journal of Chemical Physics, 152 (19), (2020). 
 CP2K: An electronic structure and molecular dynamics software package -
 Quickstep: Efficient and accurate electronic structure calculations.
 https://doi.org/10.1063/5.0007045

 Goerigk, Lars; Hansen, Andreas; Bauer, Christoph; Ehrlich, Stephan;
 Najibi, Asim; Grimme, Stefan. , 19 (48), (2017). 
 A look at the density functional theory zoo with the advanced GMTKN55 database
 for general main group thermochemistry, kinetics and noncovalent interactions.
 https://doi.org/10.1039/C7CP04913G

 Schuett, Ole; Messmer, Peter; Hutter, Juerg; VandeVondele, Joost. 
 Electronic Structure Calculations on Graphics Processing Units, John
 Wiley & Sons, Ltd, 173-190 (2016). 
 GPU-Accelerated Sparse Matrix-Matrix Multiplication for
 Linear Scaling Density Functional Theory.
 https://doi.org/10.1002/9781118670712.ch8

 Borstnik, U; VandeVondele, J; Weber, V; Hutter, J. 
 PARALLEL COMPUTING, 40 (5-6), 47-58 (2014). 
 Sparse matrix multiplication: The distributed block-compressed sparse
 row library.
 https://doi.org/10.1016/j.parco.2014.03.012

 Hutter, J; Iannuzzi, M; Schiffmann, F; VandeVondele, J. 
 WIREs Comput Mol Sci., 4 (1), 15-25 (2014). 
 CP2K: atomistic simulations of condensed matter systems.
 https://doi.org/10.1002/wcms.1159

 Marek, A; Blum, V; Johanni, R; Havu, V; Lang, B; Auckenthaler, T;
 Heinecke, A; Bungartz, H; Lederer, H. 
 Journal of Physics: Condensed Matter, 26 (21), (2014). 
 The ELPA library: scalable parallel eigenvalue solutions for
 electronic structure
 theory and computational science.
 https://doi.org/10.1088/0953-8984/26/21/213201

 Grimme, S; Ehrlich, S; Goerigk, L. 
 JOURNAL OF COMPUTATIONAL CHEMISTRY, 32, 1456 (2011). 
 Effect of the damping function in dispersion corrected density functional theory.
 https://doi.org/10.1002/jcc.21759

 Grimme, S; Antony, J; Ehrlich, S; Krieg, H. 
 JOURNAL OF CHEMICAL PHYSICS, 132 (15), 154104 (2010). 
 A consistent and accurate ab initio parametrization of density
 functional dispersion correction (DFT-D) for the 94 elements H-Pu.
 https://doi.org/10.1063/1.3382344

 VandeVondele, J; Hutter, J. 
 JOURNAL OF CHEMICAL PHYSICS, 127 (11), 114105 (2007). 
 Gaussian basis sets for accurate calculations on molecular systems in
 gas and condensed phases.
 https://doi.org/10.1063/1.2770708

 Krack, M. 
 THEORETICAL CHEMISTRY ACCOUNTS, 114 (1-3), 145-152 (2005). 
 Pseudopotentials for H to Kr optimized for gradient-corrected
 exchange-correlation functionals.
 https://doi.org/10.1007/s00214-005-0655-y

 VandeVondele, J; Krack, M; Mohamed, F; Parrinello, M; Chassaing, T;
 Hutter, J. COMPUTER PHYSICS COMMUNICATIONS, 167 (2), 103-128 (2005). 
 QUICKSTEP: Fast and accurate density functional calculations using a
 mixed Gaussian and plane waves approach.
 https://doi.org/10.1016/j.cpc.2004.12.014

 Frigo, M; Johnson, SG. 
 PROCEEDINGS OF THE IEEE, 93 (2), 216-231 (2005). 
 The design and implementation of FFTW3.
 https://doi.org/10.1109/JPROC.2004.840301

 Hartwigsen, C; Goedecker, S; Hutter, J. 
 PHYSICAL REVIEW B, 58 (7), 3641-3662 (1998). 
 Relativistic separable dual-space Gaussian pseudopotentials from H to Rn.
 https://doi.org/10.1103/PhysRevB.58.3641

 Lippert, G; Hutter, J; Parrinello, M. 
 MOLECULAR PHYSICS, 92 (3), 477-487 (1997). 
 A hybrid Gaussian and plane wave density functional scheme.
 https://doi.org/10.1080/002689797170220

 Perdew, JP; Burke, K; Ernzerhof, M. 
 PHYSICAL REVIEW LETTERS, 77 (18), 3865-3868 (1996). 
 Generalized gradient approximation made simple.
 https://doi.org/10.1103/PhysRevLett.77.3865

 Goedecker, S; Teter, M; Hutter, J. 
 PHYSICAL REVIEW B, 54 (3), 1703-1710 (1996). 
 Separable dual-space Gaussian pseudopotentials.
 https://doi.org/10.1103/PhysRevB.54.1703


 -------------------------------------------------------------------------------
 -                                                                             -
 -                                T I M I N G                                  -
 -                                                                             -
 -------------------------------------------------------------------------------
 SUBROUTINE                       CALLS  ASD         SELF TIME        TOTAL TIME
                                MAXIMUM       AVERAGE  MAXIMUM  AVERAGE  MAXIMUM
 CP2K                                 1  1.0     3.92     3.97 23813.17 23813.21
 qs_energies                          5  2.0     0.00     0.00 23751.97 23752.31
 scf_env_do_scf                       5  3.0     0.00     0.00 23678.44 23678.79
 scf_env_do_scf_inner_loop          175  4.0     0.01     0.02 23678.44 23678.79
 qs_scf_new_mos                     175  5.0     0.00     0.01 22286.72 22287.44
 eigensolver                        175  6.0     0.02     0.04 21991.57 21993.96
 cp_fm_diag_elpa                    145  7.0     0.00     0.00 20484.94 20488.61
 cp_fm_diag_elpa_base               145  8.0 20473.94 20476.98 20477.54 20478.11
 cp_fm_triangular_multiply          525  7.0  1446.74  1453.01  1446.74  1453.01
 qs_ks_update_qs_env                175  5.0     0.00     0.00   683.88   685.50
 rebuild_ks_matrix                  175  6.0     0.00     0.00   673.40   675.11
 qs_ks_build_kohn_sham_matrix       175  7.0     0.05     0.07   673.40   675.11
 qs_rho_update_rho_low              180  5.0     0.00     0.00   563.72   564.87
 calculate_rho_elec                 180  6.0     1.29     1.45   563.72   564.87
 rs_pw_transfer                    1425  9.5     0.03     0.05   440.82   540.36
 density_rs2pw                      180  7.0     0.02     0.08   385.18   485.31
 sum_up_and_integrate               175  8.0     1.50     1.76   479.63   481.36
 integrate_v_rspace                 175  9.0     0.01     0.02   478.13   479.61
 -------------------------------------------------------------------------------

 The number of warnings for this run is : 6
 
 -------------------------------------------------------------------------------
  **** **** ******  **  PROGRAM ENDED AT                 2025-06-22 22:18:24.581
 ***** ** ***  *** **   PROGRAM RAN ON                                sebnode129
 **    ****   ******    PROGRAM RAN BY                                    luehrs
 ***** **    ** ** **   PROGRAM PROCESS ID                               1826078
  **** **  *******  **  PROGRAM STOPPED IN /home/luehrs/PhD/Sodium_batteries/Sod
                                           ium-graphene-curvature/Sinus_surface2
                                           /Sinus4
