     193
 i =       61, E =     -1140.5763344041
  C        18.4894350211        2.1414071289       -0.9496789211
  C         6.3001902857       12.8955284463        3.6430066595
  C         7.5090623854       13.6088226061        3.8770175833
  C         8.7385221545       12.8950029241        3.9405877636
  C         9.9651799940       13.6077282019        3.8274919730
  C        11.1638065997       12.8942986964        3.5417603967
  C        12.3150075997       13.6066148663        3.1016594233
  C        13.4140591950       12.8940906387        2.5430314703
  C        14.4646637010       13.6059612170        1.8983557096
  C        15.4837048779       12.8939315175        1.2047384898
  C        16.4831220903       13.6055593674        0.4827232342
  C        17.4833372829       12.8937622557       -0.2366949411
  C        18.4940008018       13.6054538130       -0.9411525448
  C        19.5242884256       12.8932998510       -1.6150022794
  C        20.5799838377       13.6060302652       -2.2477156539
  C        21.6722852113       12.8933827646       -2.8153999212
  C        22.8031018391       13.6070195656       -3.2998807532
  C        21.6721738271       11.4570521602       -2.8158998258
  C        19.5230648958       11.4572117638       -1.6179605810
  C        17.4783477788       11.4577355465       -0.2457492998
  C        15.4747398861       11.4576701610        1.1915046902
  C        13.4087895273       11.4575472649        2.5358581045
  C        12.3089484918       10.7444547603        3.0923329785
  C        11.1621092774       11.4582435375        3.5399886017
  C         9.9633164108       10.7448268312        3.8266370688
  C         8.7378121150       11.4590840698        3.9411899934
  C         7.5079413986       10.7453281579        3.8788876819
  C         6.2996179183       11.4595289498        3.6437998812
  C         5.1334477680       10.7457282118        3.2499046228
  C        20.5787805438       10.7434364348       -2.2506488322
  C        18.4878957359       10.7446227753       -0.9519590207
  C        16.4676692093       10.7466478477        0.4600378805
  C        14.4495050091       10.7451067981        1.8759895651
  C        20.5768663130        9.3068828516       -2.2561130362
  C        19.5131814442        8.5933331583       -1.6380385844
  C        18.4798592704        9.3081070106       -0.9697480645
  C        17.4469271509        8.5952425200       -0.2992957313
  C        16.4419643942        9.3099436752        0.4176855116
  C        15.4126266264        8.5969312756        1.1025918110
  C        14.4226144372        9.3091839377        1.8394636743
  C        13.3775250384        8.5937445441        2.4881534476
  C        12.3002608348        9.3080763209        3.0806741559
  C        11.1548547902        8.5939610263        3.5309296095
  C         9.9609787658        9.3087101109        3.8271028805
  C         8.7354654885        8.5949884352        3.9437949656
  C         7.5067487349        9.3092807703        3.8804874421
  C         6.2982485862        8.5956130057        3.6459035681
  C         5.1329413115        9.3095658308        3.2503744939
  C         4.0203020698        8.5961755581        2.7237298200
  C         4.0201348762        7.1597298361        2.7238252000
  C         5.1324539486        6.4456942954        3.2510121290
  C         6.2979930998        7.1594963004        3.6461593631
  C         7.5060842617        6.4448830215        3.8817188342
  C         8.7349861859        7.1589968622        3.9447456471
  C         9.9596986799        6.4437796016        3.8276310460
  C        11.1533908500        7.1580723251        3.5297546024
  C        12.2937088782        6.4420688649        3.0701504415
  C        13.3686820192        7.1568289559        2.4750515885
  C        14.3936233094        6.4388831437        1.7966959275
  C        15.3852853917        7.1536169506        1.0628064154
  C        16.4082281593        6.4373684717        0.3645976036
  C        17.4353357423        7.1553072856       -0.3199351031
  C        18.4672003925        6.4405487624       -0.9922111919
  C        19.5099222252        7.1563875701       -1.6448656622
  C        18.4701270156        5.0034898681       -0.9830335372
  C        17.4550230948        4.2893910086       -0.2855689252
  C        16.4310455942        4.9989644374        0.4015025693
  C        15.4397970923        4.2893424302        1.1377856417
  C        14.4175005607        5.0021102517        1.8263693313
  C        13.3915840096        4.2913235111        2.5082285423
  C        12.2999672823        5.0059504301        3.0774200262
  C        11.1582191314        4.2930142666        3.5352982069
  C         9.9615486190        5.0076646715        3.8270663427
  C         8.7365005817        4.2943966823        3.9430020034
  C         7.5070603234        5.0087437759        3.8805684536
  C         6.2988546367        4.2953775504        3.6449030979
  C         5.1330175759        5.0094589941        3.2503993955
  C         4.0206210312        4.2961136783        2.7233621390
  C         2.9597865065        5.0095800128        2.0982250948
  C         2.9596147485        6.4461873833        2.0983313772
  C         1.9440350139        4.2963480159        1.4028189869
  C         1.9441221804        2.8596975052        1.4027598744
  C         2.9603190545        2.1461542244        2.0976904543
  C         4.0211602861        2.8596699188        2.7227490512
  C         5.1340914821        2.1456469597        3.2488349678
  C         6.2998729322        2.8593114264        3.6434989676
  C         7.5086816606        2.1448958838        3.8775757531
  C         8.7380020274        2.8583327810        3.9413121223
  C         9.9644182308        2.1438199757        3.8273840369
  C        11.1617492659        2.8568412349        3.5382892328
  C        12.3124092332        2.1429017384        3.0975746654
  C        13.4048900930        2.8551887998        2.5276443069
  C        14.4571509784        2.1423153241        1.8862555634
  C        15.4648942483        2.8537426963        1.1753593938
  C        16.4741634255        2.1415768996        0.4682371964
  C        17.4697386952        2.8533294555       -0.2593066278
  C        20.5782412513        2.1423407712       -2.2511779750
  C        21.6708240866        2.8566207615       -2.8179534544
  C        25.1791014546        2.1441072127       -3.9264309126
  C        26.4063242567        2.8584927707       -4.0218561337
  C        28.8480343634        2.8588369049       -3.7375435699
  C        27.6361705393        2.1448045350       -3.9575747178
  C        33.2508553427        2.8595261039       -1.5882994211
  C        30.0243017848        2.1452881777       -3.3701846906
  C        31.1515300749        2.8590918333       -2.8733029088
  C        32.2241213551        2.1457365910       -2.2681362439
  C        34.2409545676        2.1462505602       -0.8555555446
  C        19.5131993904        4.2914695655       -1.6366275027
  C        22.8028859891        2.1433432972       -3.3001047518
  C        19.5181415959        2.8550238476       -1.6261482270
  C        35.2113484742        2.8597877579       -0.0974807041
  C         0.9590735554        2.1463212885        0.6634274700
  C        23.9734656042        2.8577138085       -3.6779145675
  C        23.9735995314       12.8938780624       -3.6786242570
  C        25.1789837565       13.6078201541       -3.9275794582
  C        26.4063985995       12.8945314238       -4.0238355727
  C        27.6361413470       13.6084183966       -3.9583758084
  C        28.8481400290       12.8952349683       -3.7383220576
  C        30.0241625587       13.6087650283       -3.3700698283
  C        31.1510262358       12.8956602705       -2.8723036639
  C        32.2238834000       13.6091729461       -2.2677277856
  C        33.2503774982       12.8962302384       -1.5874113098
  C        34.2408481002       13.6094813976       -0.8552580436
  C        35.2114051819       12.8964260731       -0.0972948095
  C        36.1792661525       13.6096006457        0.6633365191
  C        37.1644018625       12.8964056061        1.4025633269
  C        38.1804447954       13.6095716559        2.0976192278
  C        39.2413164477       12.8961052429        2.7227141317
  C        40.3542424615       13.6094584750        3.2487958490
  C        39.2409080786       11.4596903854        2.7231237077
  C        37.1642444547       11.4597864016        1.4026075000
  C        35.2116085718       11.4597861008       -0.0977285355
  C        33.2504973396       11.4595935291       -1.5877275698
  C        31.1511415755       11.4592216596       -2.8726157246
  C        30.0243980460       10.7453801021       -3.3703193739
  C        28.8480839096       11.4588081030       -3.7379428005
  C        27.6363074607       10.7447206983       -3.9579630284
  C        26.4064420380       11.4582935159       -4.0238082812
  C        25.1792539523       10.7439487177       -3.9274133624
  C        23.9735336637       11.4576450961       -3.6791835128
  C        22.8032723476       10.7433719757       -3.3004133361
  C        38.1800862272       10.7462363196        2.0979557304
  C        36.1795296465       10.7463459042        0.6629119866
  C        34.2411446596       10.7463165524       -0.8557637441
  C        32.2240813335       10.7458726151       -2.2680458565
  C        38.1797377534        9.3096512633        2.0983160083
  C        37.1641956025        8.5964400093        1.4026022057
  C        36.1796731569        9.3096211709        0.6626674751
  C        35.2119573308        8.5964959840       -0.0981657178
  C        34.2414840968        9.3095467005       -0.8562110716
  C        33.2512539589        8.5963377779       -1.5887495220
  C        32.2246453661        9.3092855258       -2.2689153628
  C        31.1520906878        8.5957197282       -2.8739106202
  C        30.0247700768        9.3088539607       -3.3705973016
  C        28.8483801751        8.5952548695       -3.7372714946
  C        27.6363811898        9.3083922101       -3.9570210238
  C        26.4067537588        8.5945082375       -4.0217077414
  C        25.1794345096        9.3077900674       -3.9265037024
  C        23.9738804862        8.5938129144       -3.6785931524
  C        22.8032036809        9.3071740680       -3.3011191008
  C        21.6708145115        8.5934027465       -2.8201051679
  C        21.6702127500        7.1570663047       -2.8214379586
  C        22.8028201240        6.4433635502       -3.3017773545
  C        23.9738004786        7.1577332761       -3.6782592576
  C        25.1795347516        6.4440320899       -3.9252994604
  C        26.4066789697        7.1583944491       -4.0209021884
  C        27.6363815871        6.4448158907       -3.9557016908
  C        28.8483842173        7.1588351049       -3.7370535454
  C        30.0248922324        6.4453483740       -3.3703929067
  C        31.1522197734        7.1592090645       -2.8740545457
  C        32.2252943343        6.4458429935       -2.2697338509
  C        33.2515222024        7.1596415142       -1.5891697933
  C        34.2419545404        6.4463366686       -0.8568757750
  C        35.2120250341        7.1598210046       -0.0983585088
  C        36.1793469069        6.4463385010        0.6629698976
  C        37.1640414342        7.1597940613        1.4026347668
  C        36.1792895274        5.0095799635        0.6631419337
  C        35.2116294051        4.2964623665       -0.0978049042
  C        34.2417259837        5.0095245772       -0.8565957677
  C        33.2514507517        4.2962157918       -1.5890448387
  C        32.2250787964        5.0092000663       -2.2695569222
  C        31.1519570596        4.2955934402       -2.8736140599
  C        30.0247415818        5.0087924312       -3.3703381195
  C        28.8482431650        4.2952616290       -3.7369103417
  C        27.6362062994        5.0085078869       -3.9558827194
  C        26.4066001254        4.2946438637       -4.0212424406
  C        25.1792794624        5.0079118044       -3.9253578942
  C        23.9736330799        4.2939277273       -3.6779165167
  C        22.8025886649        5.0071779051       -3.3013037386
  C        21.6702176910        4.2931163419       -2.8199779288
  C        20.5739842028        5.0058255345       -2.2603366449
  C        20.5738741366        6.4425044521       -2.2623539993
 Na        17.2349186258        7.4056496210        2.6724738119
