 DBCSR| CPU Multiplication driver                                           BLAS (U)
 DBCSR| Multrec recursion limit                                              512 (U)
 DBCSR| Multiplication stack size                                           1000 (D)
 DBCSR| Maximum elements for images                                    UNLIMITED (U)
 DBCSR| Multiplicative factor virtual images                                   1 (U)
 DBCSR| Use multiplication densification                                       T (D)
 DBCSR| Multiplication size stacks                                             3 (U)
 DBCSR| Use memory pool for CPU allocation                                     F (U)
 DBCSR| Number of 3D layers                                               SINGLE (U)
 DBCSR| Use MPI memory allocation                                              F (U)
 DBCSR| Use RMA algorithm                                                      F (U)
 DBCSR| Use Communication thread                                               T (U)
 DBCSR| Communication thread load                                             87 (D)
 DBCSR| MPI: My process id                                                     0
 DBCSR| MPI: Number of processes                                              16
 DBCSR| OMP: Current number of threads                                         1
 DBCSR| OMP: Max number of threads                                             1
 DBCSR| Split modifier for TAS multiplication algorithm                  1.0E+00 (U)


  **** **** ******  **  PROGRAM STARTED AT               2025-02-27 16:22:48.195
 ***** ** ***  *** **   PROGRAM STARTED ON                            sebnode127
 **    ****   ******    PROGRAM STARTED BY                                luehrs
 ***** **    ** ** **   PROGRAM PROCESS ID                                953318
  **** **  *******  **  PROGRAM STARTED IN /home/luehrs/PhD/Sodium_batteries/Sod
                                           ium-graphene-curvature/Curved_surface
                                           /Zig-Zag4

 CP2K| version string:                                       CP2K version 2023.1
 CP2K| source code revision number:                                  git:b888bd8
 CP2K| cp2kflags: omp libint fftw3 libxc elpa parallel scalapack spglib         
 CP2K| is freely available from                            https://www.cp2k.org/
 CP2K| Program compiled at                          Tue Jan 10 19:52:03 UTC 2023
 CP2K| Program compiled on                                            x86-ubc-01
 CP2K| Program compiled for                                Linux-x86_64-gfortran
 CP2K| Data directory path                                       /usr/share/cp2k
 CP2K| Input file name                                            input.BSSE.inp

 GLOBAL| Force Environment number                                              1
 GLOBAL| Basis set file name                                      ./BASIS_MOLOPT
 GLOBAL| Potential file name                                    ./GTH_POTENTIALS
 GLOBAL| MM Potential file name                                     MM_POTENTIAL
 GLOBAL| Coordinate file name                           coords_sur_4_relaxed.xyz
 GLOBAL| Method name                                                        CP2K
 GLOBAL| Project name                                            curv_sur_4_BSSE
 GLOBAL| Run type                                                           BSSE
 GLOBAL| FFT library                                                       FFTW3
 GLOBAL| Diagonalization library                                            ELPA
 GLOBAL| DGEMM library                                                      BLAS
 GLOBAL| Minimum number of eigenvectors for ELPA usage                        16
 GLOBAL| Orthonormality check for eigenvectors                          DISABLED
 GLOBAL| Matrix multiplication library                                 ScaLAPACK
 GLOBAL| All-to-all communication in single precision                          F
 GLOBAL| FFTs using library dependent lengths                                  F
 GLOBAL| Grid backend                                                       AUTO
 GLOBAL| Global print level                                                  LOW
 GLOBAL| MPI I/O enabled                                                       T
 GLOBAL| Total number of message passing processes                            16
 GLOBAL| Number of threads for this process                                    1
 GLOBAL| This output is from process                                           0
 GLOBAL| Stack size for threads created by OpenMP (OMP_STACKSIZE)        default
 GLOBAL| CPU model name                          AMD EPYC 7502 32-Core Processor

 MEMORY| system memory details [Kb]
 MEMORY|                        rank 0           min           max       average
 MEMORY| MemTotal            131834288     131834288     131834288     131834288
 MEMORY| MemFree               8564696       8564696       8565452       8565121
 MEMORY| Buffers                425012        425012        425012        425012
 MEMORY| Cached               24877004      24876856      24877004      24876919
 MEMORY| Slab                  1698948       1698688       1698948       1698800
 MEMORY| SReclaimable          1080364       1080204       1080364       1080274
 MEMORY| MemLikelyFree        34947076      34947072      34947524      34947326


 GENERATE|  Preliminary Number of Bonds generated:                             0
 GENERATE|  Achieved consistency in connectivity generation.

 *******************************************************************************
 *******************************************************************************
 **                                                                           **
 **     #####                         ##              ##                      **
 **    ##   ##            ##          ##              ##                      **
 **   ##     ##                       ##            ######                    **
 **   ##     ##  ##   ##  ##   #####  ##  ##   ####   ##    #####    #####    **
 **   ##     ##  ##   ##  ##  ##      ## ##   ##      ##   ##   ##  ##   ##   **
 **   ##  ## ##  ##   ##  ##  ##      ####     ###    ##   ######   ######    **
 **    ##  ###   ##   ##  ##  ##      ## ##      ##   ##   ##       ##        **
 **     #######   #####   ##   #####  ##  ##  ####    ##    #####   ##        **
 **           ##                                                    ##        **
 **                                                                           **
 **                                                ... make the atoms dance   **
 **                                                                           **
 **            Copyright (C) by CP2K developers group (2000-2022)             **
 **                      J. Chem. Phys. 152, 194103 (2020)                    **
 **                                                                           **
 *******************************************************************************


 TOTAL NUMBERS AND MAXIMUM NUMBERS

  Total number of            - Atomic kinds:                                   2
                             - Atoms:                                        225
                             - Shell sets:                                   225
                             - Shells:                                      1125
                             - Primitive Cartesian functions:               1127
                             - Cartesian basis functions:                   3145
                             - Spherical basis functions:                   2921

  Maximum angular momentum of- Orbital basis functions:                        2
                             - Local part of the GTH pseudopotential:          2
                             - Non-local part of the GTH pseudopotential:      1


 SCF PARAMETERS         Density guess:                                    ATOMIC
                        --------------------------------------------------------
                        max_scf:                                             300
                        max_scf_history:                                       0
                        max_diis:                                              4
                        --------------------------------------------------------
                        eps_scf:                                        3.00E-07
                        eps_scf_history:                                0.00E+00
                        eps_diis:                                       1.00E-01
                        eps_eigval:                                     1.00E-05
                        --------------------------------------------------------
                        level_shift [a.u.]:                             0.000000
                        added MOs                                       100    0
                        --------------------------------------------------------
                        Mixing method:                            BROYDEN_MIXING
                                                charge density mixing in g-space
                        --------------------------------------------------------
                        Smear method:                                FERMI_DIRAC
                        Electronic temperature [K]:                        300.0
                        Electronic temperature [a.u.]:                  9.50E-04
                        Accuracy threshold:                             1.00E-10
                        --------------------------------------------------------
                        Outer loop SCF in use 
                        No variables optimised in outer loop
                        eps_scf                                         1.00E-06
                        max_scf                                              300
                        DIIS optimization
                        DIIS buffer length                                     3
                        step_size                                       5.00E-01

 -------------------------------------------------------------------------------
 -                                                                             -
 -  BSSE CALCULATION         FRAGMENT CONF: 10        FRAGMENT SUBCONF: 10     -
 -                           CHARGE =     0           MULTIPLICITY =     0     -
 -                                                                             -
 -                 ATOM INDEX                              ATOM NAME           -
 -                 ----------                              ---------           -
 -                      1                                   C                  -
 -                      2                                   C                  -
 -                      3                                   C                  -
 -                      4                                   C                  -
 -                      5                                   C                  -
 -                      6                                   C                  -
 -                      7                                   C                  -
 -                      8                                   C                  -
 -                      9                                   C                  -
 -                     10                                   C                  -
 -                     11                                   C                  -
 -                     12                                   C                  -
 -                     13                                   C                  -
 -                     14                                   C                  -
 -                     15                                   C                  -
 -                     16                                   C                  -
 -                     17                                   C                  -
 -                     18                                   C                  -
 -                     19                                   C                  -
 -                     20                                   C                  -
 -                     21                                   C                  -
 -                     22                                   C                  -
 -                     23                                   C                  -
 -                     24                                   C                  -
 -                     25                                   C                  -
 -                     26                                   C                  -
 -                     27                                   C                  -
 -                     28                                   C                  -
 -                     29                                   C                  -
 -                     30                                   C                  -
 -                     31                                   C                  -
 -                     32                                   C                  -
 -                     33                                   C                  -
 -                     34                                   C                  -
 -                     35                                   C                  -
 -                     36                                   C                  -
 -                     37                                   C                  -
 -                     38                                   C                  -
 -                     39                                   C                  -
 -                     40                                   C                  -
 -                     41                                   C                  -
 -                     42                                   C                  -
 -                     43                                   C                  -
 -                     44                                   C                  -
 -                     45                                   C                  -
 -                     46                                   C                  -
 -                     47                                   C                  -
 -                     48                                   C                  -
 -                     49                                   C                  -
 -                     50                                   C                  -
 -                     51                                   C                  -
 -                     52                                   C                  -
 -                     53                                   C                  -
 -                     54                                   C                  -
 -                     55                                   C                  -
 -                     56                                   C                  -
 -                     57                                   C                  -
 -                     58                                   C                  -
 -                     59                                   C                  -
 -                     60                                   C                  -
 -                     61                                   C                  -
 -                     62                                   C                  -
 -                     63                                   C                  -
 -                     64                                   C                  -
 -                     65                                   C                  -
 -                     66                                   C                  -
 -                     67                                   C                  -
 -                     68                                   C                  -
 -                     69                                   C                  -
 -                     70                                   C                  -
 -                     71                                   C                  -
 -                     72                                   C                  -
 -                     73                                   C                  -
 -                     74                                   C                  -
 -                     75                                   C                  -
 -                     76                                   C                  -
 -                     77                                   C                  -
 -                     78                                   C                  -
 -                     79                                   C                  -
 -                     80                                   C                  -
 -                     81                                   C                  -
 -                     82                                   C                  -
 -                     83                                   C                  -
 -                     84                                   C                  -
 -                     85                                   C                  -
 -                     86                                   C                  -
 -                     87                                   C                  -
 -                     88                                   C                  -
 -                     89                                   C                  -
 -                     90                                   C                  -
 -                     91                                   C                  -
 -                     92                                   C                  -
 -                     93                                   C                  -
 -                     94                                   C                  -
 -                     95                                   C                  -
 -                     96                                   C                  -
 -                     97                                   C                  -
 -                     98                                   C                  -
 -                     99                                   C                  -
 -                    100                                   C                  -
 -                    101                                   C                  -
 -                    102                                   C                  -
 -                    103                                   C                  -
 -                    104                                   C                  -
 -                    105                                   C                  -
 -                    106                                   C                  -
 -                    107                                   C                  -
 -                    108                                   C                  -
 -                    109                                   C                  -
 -                    110                                   C                  -
 -                    111                                   C                  -
 -                    112                                   C                  -
 -                    113                                   C                  -
 -                    114                                   C                  -
 -                    115                                   C                  -
 -                    116                                   C                  -
 -                    117                                   C                  -
 -                    118                                   C                  -
 -                    119                                   C                  -
 -                    120                                   C                  -
 -                    121                                   C                  -
 -                    122                                   C                  -
 -                    123                                   C                  -
 -                    124                                   C                  -
 -                    125                                   C                  -
 -                    126                                   C                  -
 -                    127                                   C                  -
 -                    128                                   C                  -
 -                    129                                   C                  -
 -                    130                                   C                  -
 -                    131                                   C                  -
 -                    132                                   C                  -
 -                    133                                   C                  -
 -                    134                                   C                  -
 -                    135                                   C                  -
 -                    136                                   C                  -
 -                    137                                   C                  -
 -                    138                                   C                  -
 -                    139                                   C                  -
 -                    140                                   C                  -
 -                    141                                   C                  -
 -                    142                                   C                  -
 -                    143                                   C                  -
 -                    144                                   C                  -
 -                    145                                   C                  -
 -                    146                                   C                  -
 -                    147                                   C                  -
 -                    148                                   C                  -
 -                    149                                   C                  -
 -                    150                                   C                  -
 -                    151                                   C                  -
 -                    152                                   C                  -
 -                    153                                   C                  -
 -                    154                                   C                  -
 -                    155                                   C                  -
 -                    156                                   C                  -
 -                    157                                   C                  -
 -                    158                                   C                  -
 -                    159                                   C                  -
 -                    160                                   C                  -
 -                    161                                   C                  -
 -                    162                                   C                  -
 -                    163                                   C                  -
 -                    164                                   C                  -
 -                    165                                   C                  -
 -                    166                                   C                  -
 -                    167                                   C                  -
 -                    168                                   C                  -
 -                    169                                   C                  -
 -                    170                                   C                  -
 -                    171                                   C                  -
 -                    172                                   C                  -
 -                    173                                   C                  -
 -                    174                                   C                  -
 -                    175                                   C                  -
 -                    176                                   C                  -
 -                    177                                   C                  -
 -                    178                                   C                  -
 -                    179                                   C                  -
 -                    180                                   C                  -
 -                    181                                   C                  -
 -                    182                                   C                  -
 -                    183                                   C                  -
 -                    184                                   C                  -
 -                    185                                   C                  -
 -                    186                                   C                  -
 -                    187                                   C                  -
 -                    188                                   C                  -
 -                    189                                   C                  -
 -                    190                                   C                  -
 -                    191                                   C                  -
 -                    192                                   C                  -
 -                    193                                   C                  -
 -                    194                                   C                  -
 -                    195                                   C                  -
 -                    196                                   C                  -
 -                    197                                   C                  -
 -                    198                                   C                  -
 -                    199                                   C                  -
 -                    200                                   C                  -
 -                    201                                   C                  -
 -                    202                                   C                  -
 -                    203                                   C                  -
 -                    204                                   C                  -
 -                    205                                   C                  -
 -                    206                                   C                  -
 -                    207                                   C                  -
 -                    208                                   C                  -
 -                    209                                   C                  -
 -                    210                                   C                  -
 -                    211                                   C                  -
 -                    212                                   C                  -
 -                    213                                   C                  -
 -                    214                                   C                  -
 -                    215                                   C                  -
 -                    216                                   C                  -
 -                    217                                   C                  -
 -                    218                                   C                  -
 -                    219                                   C                  -
 -                    220                                   C                  -
 -                    221                                   C                  -
 -                    222                                   C                  -
 -                    223                                   C                  -
 -                    224                                   C                  -
 -------------------------------------------------------------------------------

 *******************************************************************************
 *******************************************************************************
 **                                                                           **
 **     #####                         ##              ##                      **
 **    ##   ##            ##          ##              ##                      **
 **   ##     ##                       ##            ######                    **
 **   ##     ##  ##   ##  ##   #####  ##  ##   ####   ##    #####    #####    **
 **   ##     ##  ##   ##  ##  ##      ## ##   ##      ##   ##   ##  ##   ##   **
 **   ##  ## ##  ##   ##  ##  ##      ####     ###    ##   ######   ######    **
 **    ##  ###   ##   ##  ##  ##      ## ##      ##   ##   ##       ##        **
 **     #######   #####   ##   #####  ##  ##  ####    ##    #####   ##        **
 **           ##                                                    ##        **
 **                                                                           **
 **                                                ... make the atoms dance   **
 **                                                                           **
 **            Copyright (C) by CP2K developers group (2000-2022)             **
 **                      J. Chem. Phys. 152, 194103 (2020)                    **
 **                                                                           **
 *******************************************************************************


 TOTAL NUMBERS AND MAXIMUM NUMBERS

  Total number of            - Atomic kinds:                                   1
                             - Atoms:                                        224
                             - Shell sets:                                   224
                             - Shells:                                      1120
                             - Primitive Cartesian functions:               1120
                             - Cartesian basis functions:                   3136
                             - Spherical basis functions:                   2912

  Maximum angular momentum of- Orbital basis functions:                        2
                             - Local part of the GTH pseudopotential:          2
                             - Non-local part of the GTH pseudopotential:      0


 SCF PARAMETERS         Density guess:                                    ATOMIC
                        --------------------------------------------------------
                        max_scf:                                             300
                        max_scf_history:                                       0
                        max_diis:                                              4
                        --------------------------------------------------------
                        eps_scf:                                        3.00E-07
                        eps_scf_history:                                0.00E+00
                        eps_diis:                                       1.00E-01
                        eps_eigval:                                     1.00E-05
                        --------------------------------------------------------
                        level_shift [a.u.]:                             0.000000
                        added MOs                                       100    0
                        --------------------------------------------------------
                        Mixing method:                            BROYDEN_MIXING
                                                charge density mixing in g-space
                        --------------------------------------------------------
                        Smear method:                                FERMI_DIRAC
                        Electronic temperature [K]:                        300.0
                        Electronic temperature [a.u.]:                  9.50E-04
                        Accuracy threshold:                             1.00E-10
                        --------------------------------------------------------
                        Outer loop SCF in use 
                        No variables optimised in outer loop
                        eps_scf                                         1.00E-06
                        max_scf                                              300
                        DIIS optimization
                        DIIS buffer length                                     3
                        step_size                                       5.00E-01

 Number of electrons:                                                        896
 Number of occupied orbitals:                                                448
 Number of molecular orbitals:                                               548

 Number of orbital functions:                                               2912
 Number of independent orbital functions:                                   2912

 Extrapolation method: initial_guess


 SCF WAVEFUNCTION OPTIMIZATION

  Step     Update method      Time    Convergence         Total energy    Change
  ------------------------------------------------------------------------------
     1 NoMix/Diag. 0.10E+00  190.3     0.92855114     -1265.9121593170 -1.27E+03
     2 Broy./Diag. 0.10E+00  173.2     0.26359742     -1214.9946253192  5.09E+01
     3 Broy./Diag. 0.10E+00  184.3     0.05096028     -1222.9896793010 -8.00E+00
     4 Broy./Diag. 0.10E+00  159.6     0.14876035     -1255.9815089556 -3.30E+01
     5 Broy./Diag. 0.10E+00  170.8     0.12768495     -1269.1463072012 -1.32E+01
     6 Broy./Diag. 0.10E+00  176.7     0.08359928     -1270.0244906654 -8.78E-01
     7 Broy./Diag. 0.10E+00  187.7     0.03847276     -1270.7394853252 -7.15E-01
     8 Broy./Diag. 0.10E+00  164.6     0.01198564     -1271.6819603260 -9.42E-01
     9 Broy./Diag. 0.10E+00  157.4     0.00957597     -1272.1601729733 -4.78E-01
    10 Broy./Diag. 0.10E+00  148.4     0.01314543     -1272.5780135346 -4.18E-01
    11 Broy./Diag. 0.10E+00  175.1     0.00493302     -1272.7193181844 -1.41E-01
    12 Broy./Diag. 0.10E+00  175.5     0.00268577     -1273.0271956956 -3.08E-01
    13 Broy./Diag. 0.10E+00  146.8     0.00263463     -1273.2837986134 -2.57E-01
    14 Broy./Diag. 0.10E+00  175.9     0.00419732     -1273.4127999922 -1.29E-01
    15 Broy./Diag. 0.10E+00  160.8     0.00080185     -1273.4914809819 -7.87E-02
    16 Broy./Diag. 0.10E+00  170.0     0.00112930     -1273.4707109507  2.08E-02
    17 Broy./Diag. 0.10E+00  146.8     0.00233761     -1273.4555839786  1.51E-02
    18 Broy./Diag. 0.10E+00  170.3     0.00194279     -1273.5099943536 -5.44E-02
    19 Broy./Diag. 0.10E+00  171.1     0.00209133     -1273.5338882392 -2.39E-02
    20 Broy./Diag. 0.10E+00  171.1     0.00134366     -1273.5544980328 -2.06E-02
    21 Broy./Diag. 0.10E+00  176.7     0.00047129     -1273.5869961959 -3.25E-02
    22 Broy./Diag. 0.10E+00  182.0     0.00019771     -1273.6195103200 -3.25E-02
    23 Broy./Diag. 0.10E+00  175.2     0.00014060     -1273.6458137838 -2.63E-02
    24 Broy./Diag. 0.10E+00  171.1     0.00033124     -1273.6471084954 -1.29E-03
    25 Broy./Diag. 0.10E+00  171.0     0.00019573     -1273.6427937975  4.31E-03
    26 Broy./Diag. 0.10E+00  162.1     0.00020272     -1273.6368986807  5.90E-03
    27 Broy./Diag. 0.10E+00  171.8     0.00028741     -1273.6284236983  8.47E-03
    28 Broy./Diag. 0.10E+00  176.1     0.00033089     -1273.6272934629  1.13E-03
    29 Broy./Diag. 0.10E+00  179.8     0.00055854     -1273.6366635973 -9.37E-03
    30 Broy./Diag. 0.10E+00  144.7     0.00048188     -1273.6435977444 -6.93E-03
    31 Broy./Diag. 0.10E+00  158.7     0.00015325     -1273.6463051775 -2.71E-03
    32 Broy./Diag. 0.10E+00  179.2     0.00017303     -1273.6449244047  1.38E-03
    33 Broy./Diag. 0.10E+00  177.2     0.00014330     -1273.6435634387  1.36E-03
    34 Broy./Diag. 0.10E+00  188.1     0.00009674     -1273.6415868684  1.98E-03
    35 Broy./Diag. 0.10E+00  176.5     0.00014743     -1273.6439586183 -2.37E-03
    36 Broy./Diag. 0.10E+00  173.1     0.00020370     -1273.6459831582 -2.02E-03
    37 Broy./Diag. 0.10E+00  186.2     0.00009722     -1273.6488357099 -2.85E-03
    38 Broy./Diag. 0.10E+00  191.6     0.00002377     -1273.6511731862 -2.34E-03
    39 Broy./Diag. 0.10E+00  191.7     0.00009044     -1273.6525682280 -1.40E-03
    40 Broy./Diag. 0.10E+00  188.1     0.00010735     -1273.6544350585 -1.87E-03
    41 Broy./Diag. 0.10E+00  184.0     0.00004590     -1273.6554015567 -9.66E-04
    42 Broy./Diag. 0.10E+00  176.9     0.00005335     -1273.6569120628 -1.51E-03
    43 Broy./Diag. 0.10E+00  175.7     0.00004781     -1273.6583973213 -1.49E-03
    44 Broy./Diag. 0.10E+00  167.3     0.00001419     -1273.6588563239 -4.59E-04
    45 Broy./Diag. 0.10E+00  196.5     0.00001349     -1273.6587209794  1.35E-04
    46 Broy./Diag. 0.10E+00  176.0     0.00004057     -1273.6581500713  5.71E-04
    47 Broy./Diag. 0.10E+00  160.6     0.00003752     -1273.6573857175  7.64E-04
    48 Broy./Diag. 0.10E+00  187.1     0.00001692     -1273.6568065292  5.79E-04
    49 Broy./Diag. 0.10E+00  160.5     0.00001059     -1273.6565780075  2.29E-04
    50 Broy./Diag. 0.10E+00  182.2     0.00001318     -1273.6564513041  1.27E-04
    51 Broy./Diag. 0.10E+00  188.9     0.00001933     -1273.6563118595  1.39E-04
    52 Broy./Diag. 0.10E+00  168.5     0.00001586     -1273.6563322507 -2.04E-05
    53 Broy./Diag. 0.10E+00  155.2     0.00001590     -1273.6564232868 -9.10E-05
    54 Broy./Diag. 0.10E+00  168.4     0.00001031     -1273.6567227652 -2.99E-04
    55 Broy./Diag. 0.10E+00  166.2     0.00000458     -1273.6570550338 -3.32E-04
    56 Broy./Diag. 0.10E+00  187.2     0.00000833     -1273.6573083452 -2.53E-04
    57 Broy./Diag. 0.10E+00  177.9     0.00000873     -1273.6575237164 -2.15E-04
    58 Broy./Diag. 0.10E+00  184.0     0.00000484     -1273.6576601005 -1.36E-04
    59 Broy./Diag. 0.10E+00  188.3     0.00000201     -1273.6576960670 -3.60E-05
    60 Broy./Diag. 0.10E+00  130.8     0.00000407     -1273.6576918435  4.22E-06
    61 Broy./Diag. 0.10E+00  148.0     0.00000453     -1273.6576470758  4.48E-05
    62 Broy./Diag. 0.10E+00  135.2     0.00000300     -1273.6576183995  2.87E-05
    63 Broy./Diag. 0.10E+00  155.0     0.00000238     -1273.6575978393  2.06E-05
    64 Broy./Diag. 0.10E+00  158.5     0.00000200     -1273.6575509466  4.69E-05
    65 Broy./Diag. 0.10E+00  156.2     0.00000102     -1273.6575146247  3.63E-05
    66 Broy./Diag. 0.10E+00  186.4     0.00000210     -1273.6574806647  3.40E-05
    67 Broy./Diag. 0.10E+00  167.6     0.00000259     -1273.6574566839  2.40E-05
    68 Broy./Diag. 0.10E+00  176.8     0.00000212     -1273.6574611365 -4.45E-06
    69 Broy./Diag. 0.10E+00  180.2     0.00000155     -1273.6575033562 -4.22E-05
    70 Broy./Diag. 0.10E+00  160.9     0.00000156     -1273.6575427982 -3.94E-05
    71 Broy./Diag. 0.10E+00  171.5     0.00000127     -1273.6575676944 -2.49E-05
    72 Broy./Diag. 0.10E+00  183.0     0.00000073     -1273.6575829749 -1.53E-05
    73 Broy./Diag. 0.10E+00  172.4     0.00000085     -1273.6575853230 -2.35E-06
    74 Broy./Diag. 0.10E+00  164.5     0.00000063     -1273.6575947149 -9.39E-06
    75 Broy./Diag. 0.10E+00  140.2     0.00000025     -1273.6575994268 -4.71E-06

  *** SCF run converged in    75 steps ***


  Electronic density on regular grids:       -896.0000000000        0.0000000000
  Core density on regular grids:              895.9999999992       -0.0000000008
  Total charge density on r-space grids:       -0.0000000007
  Total charge density g-space grids:          -0.0000000007

  Overlap energy of the core charge distribution:               0.00005632564276
  Self energy of the core charge distribution:              -2987.04177559540722
  Core Hamiltonian energy:                                    937.74498371287325
  Hartree energy:                                            1167.03334637293665
  Exchange-correlation energy:                               -391.12778182923921
  Dispersion energy:                                           -0.25986067328793
  Electronic entropic energy:                                  -0.00656773959893
  Fermi energy:                                                -0.15103835500878

  Total energy:                                             -1273.65759942676164

  outer SCF iter =    1 RMS gradient =   0.25E-06 energy =      -1273.6575994268
  outer SCF loop converged in   1 iterations or   75 steps


 *** WARNING in qs_loc_utils.F:1500 :: User requested the calculation of ***
 *** the localized wavefunction but the section LOCALIZE was not         ***
 *** specified. Localization will not be performed!                      ***


 -------------------------------------------------------------------------------
 -                                                                             -
 -  BSSE CALCULATION         FRAGMENT CONF: 01        FRAGMENT SUBCONF: 01     -
 -                           CHARGE =     0           MULTIPLICITY =     0     -
 -                                                                             -
 -                 ATOM INDEX                              ATOM NAME           -
 -                 ----------                              ---------           -
 -                    225                                   Na                 -
 -------------------------------------------------------------------------------

 *******************************************************************************
 *******************************************************************************
 **                                                                           **
 **     #####                         ##              ##                      **
 **    ##   ##            ##          ##              ##                      **
 **   ##     ##                       ##            ######                    **
 **   ##     ##  ##   ##  ##   #####  ##  ##   ####   ##    #####    #####    **
 **   ##     ##  ##   ##  ##  ##      ## ##   ##      ##   ##   ##  ##   ##   **
 **   ##  ## ##  ##   ##  ##  ##      ####     ###    ##   ######   ######    **
 **    ##  ###   ##   ##  ##  ##      ## ##      ##   ##   ##       ##        **
 **     #######   #####   ##   #####  ##  ##  ####    ##    #####   ##        **
 **           ##                                                    ##        **
 **                                                                           **
 **                                                ... make the atoms dance   **
 **                                                                           **
 **            Copyright (C) by CP2K developers group (2000-2022)             **
 **                      J. Chem. Phys. 152, 194103 (2020)                    **
 **                                                                           **
 *******************************************************************************

 *** WARNING in qs_environment.F:1486 :: More added MOs requested than     ***
 *** available. The full set of unoccupied MOs will be used. Use           ***
 *** 'ADDED_MOS -1' to always use all available MOs and to get rid of this ***
 *** warning.                                                              ***



 TOTAL NUMBERS AND MAXIMUM NUMBERS

  Total number of            - Atomic kinds:                                   1
                             - Atoms:                                          1
                             - Shell sets:                                     1
                             - Shells:                                         5
                             - Primitive Cartesian functions:                  7
                             - Cartesian basis functions:                      9
                             - Spherical basis functions:                      9

  Maximum angular momentum of- Orbital basis functions:                        1
                             - Local part of the GTH pseudopotential:          2
                             - Non-local part of the GTH pseudopotential:      1


 SCF PARAMETERS         Density guess:                                    ATOMIC
                        --------------------------------------------------------
                        max_scf:                                             300
                        max_scf_history:                                       0
                        max_diis:                                              4
                        --------------------------------------------------------
                        eps_scf:                                        3.00E-07
                        eps_scf_history:                                0.00E+00
                        eps_diis:                                       1.00E-01
                        eps_eigval:                                     1.00E-05
                        --------------------------------------------------------
                        level_shift [a.u.]:                             0.000000
                        added MOs                                         4    0
                        --------------------------------------------------------
                        Mixing method:                            BROYDEN_MIXING
                                                charge density mixing in g-space
                        --------------------------------------------------------
                        Smear method:                                FERMI_DIRAC
                        Electronic temperature [K]:                        300.0
                        Electronic temperature [a.u.]:                  9.50E-04
                        Accuracy threshold:                             1.00E-10
                        --------------------------------------------------------
                        Outer loop SCF in use 
                        No variables optimised in outer loop
                        eps_scf                                         1.00E-06
                        max_scf                                              300
                        DIIS optimization
                        DIIS buffer length                                     3
                        step_size                                       5.00E-01

 Number of electrons:                                                          9
 Number of occupied orbitals:                                                  5
 Number of molecular orbitals:                                                 9

 Number of orbital functions:                                                  9
 Number of independent orbital functions:                                      9

 Extrapolation method: initial_guess


 SCF WAVEFUNCTION OPTIMIZATION

  Step     Update method      Time    Convergence         Total energy    Change
  ------------------------------------------------------------------------------
     1 NoMix/Diag. 0.10E+00    8.5     0.02077845       -47.1632370322 -4.72E+01
     2 Broy./Diag. 0.10E+00   12.7     0.00009671       -47.1203728777  4.29E-02
     3 Broy./Diag. 0.10E+00   14.3     0.00099675       -47.1612384831 -4.09E-02
     4 Broy./Diag. 0.10E+00   13.3     0.00002400       -47.1689062377 -7.67E-03
     5 Broy./Diag. 0.10E+00   13.8     0.00025246       -47.1689426700 -3.64E-05
     6 Broy./Diag. 0.10E+00   13.1     0.00000809       -47.1690662966 -1.24E-04
     7 Broy./Diag. 0.10E+00   13.6     0.00014091       -47.1673846517  1.68E-03
     8 Broy./Diag. 0.10E+00   14.7     0.00001764       -47.1664372201  9.47E-04
     9 Broy./Diag. 0.10E+00   14.7     0.00018660       -47.1657833940  6.54E-04
    10 Broy./Diag. 0.10E+00   14.9     0.00000972       -47.1653975466  3.86E-04
    11 Broy./Diag. 0.10E+00   15.5     0.00009319       -47.1651929674  2.05E-04
    12 Broy./Diag. 0.10E+00   16.0     0.00000301       -47.1651305884  6.24E-05
    13 Broy./Diag. 0.10E+00   16.0     0.00000819       -47.1652269055 -9.63E-05
    14 Broy./Diag. 0.10E+00   15.6     0.00000082       -47.1652440418 -1.71E-05
    15 Broy./Diag. 0.10E+00   14.8     0.00001234       -47.1650827004  1.61E-04
    16 Broy./Diag. 0.10E+00   14.2     0.00000254       -47.1650537675  2.89E-05
    17 Broy./Diag. 0.10E+00   15.4     0.00000272       -47.1650909471 -3.72E-05
    18 Broy./Diag. 0.10E+00   16.0     0.00000203       -47.1651324229 -4.15E-05
    19 Broy./Diag. 0.10E+00   15.7     0.00000144       -47.1651505106 -1.81E-05
    20 Broy./Diag. 0.10E+00   16.6     0.00000262       -47.1651463391  4.17E-06
    21 Broy./Diag. 0.10E+00   18.7     0.00000267       -47.1651253334  2.10E-05
    22 Broy./Diag. 0.10E+00   15.6     0.00000452       -47.1650944376  3.09E-05
    23 Broy./Diag. 0.10E+00   16.0     0.00000311       -47.1650740709  2.04E-05
    24 Broy./Diag. 0.10E+00   16.4     0.00000121       -47.1650719574  2.11E-06
    25 Broy./Diag. 0.10E+00   15.4     0.00000028       -47.1650798487 -7.89E-06

  *** SCF run converged in    25 steps ***


  Electronic density on regular grids:         -9.0003199574       -0.0003199574
  Core density on regular grids:                9.0000000000       -0.0000000000
  Total charge density on r-space grids:       -0.0003199574
  Total charge density g-space grids:          -0.0003199574

  Overlap energy of the core charge distribution:               0.00000000000000
  Self energy of the core charge distribution:                -96.60649019442629
  Core Hamiltonian energy:                                     29.76188903342453
  Hartree energy:                                              26.72519051702907
  Exchange-correlation energy:                                 -7.04435152815704
  Dispersion energy:                                           -0.00000063510881
  Electronic entropic energy:                                  -0.00131704147593
  Fermi energy:                                                -0.09176768409095

  Total energy:                                               -47.16507984871446

  outer SCF iter =    1 RMS gradient =   0.28E-06 energy =        -47.1650798487
  outer SCF loop converged in   1 iterations or   25 steps


 *** WARNING in qs_loc_utils.F:1500 :: User requested the calculation of ***
 *** the localized wavefunction but the section LOCALIZE was not         ***
 *** specified. Localization will not be performed!                      ***


 -------------------------------------------------------------------------------
 -                                                                             -
 -  BSSE CALCULATION         FRAGMENT CONF: 11        FRAGMENT SUBCONF: 10     -
 -                           CHARGE =     0           MULTIPLICITY =     0     -
 -                                                                             -
 -                 ATOM INDEX                              ATOM NAME           -
 -                 ----------                              ---------           -
 -                      1                                   C                  -
 -                      2                                   C                  -
 -                      3                                   C                  -
 -                      4                                   C                  -
 -                      5                                   C                  -
 -                      6                                   C                  -
 -                      7                                   C                  -
 -                      8                                   C                  -
 -                      9                                   C                  -
 -                     10                                   C                  -
 -                     11                                   C                  -
 -                     12                                   C                  -
 -                     13                                   C                  -
 -                     14                                   C                  -
 -                     15                                   C                  -
 -                     16                                   C                  -
 -                     17                                   C                  -
 -                     18                                   C                  -
 -                     19                                   C                  -
 -                     20                                   C                  -
 -                     21                                   C                  -
 -                     22                                   C                  -
 -                     23                                   C                  -
 -                     24                                   C                  -
 -                     25                                   C                  -
 -                     26                                   C                  -
 -                     27                                   C                  -
 -                     28                                   C                  -
 -                     29                                   C                  -
 -                     30                                   C                  -
 -                     31                                   C                  -
 -                     32                                   C                  -
 -                     33                                   C                  -
 -                     34                                   C                  -
 -                     35                                   C                  -
 -                     36                                   C                  -
 -                     37                                   C                  -
 -                     38                                   C                  -
 -                     39                                   C                  -
 -                     40                                   C                  -
 -                     41                                   C                  -
 -                     42                                   C                  -
 -                     43                                   C                  -
 -                     44                                   C                  -
 -                     45                                   C                  -
 -                     46                                   C                  -
 -                     47                                   C                  -
 -                     48                                   C                  -
 -                     49                                   C                  -
 -                     50                                   C                  -
 -                     51                                   C                  -
 -                     52                                   C                  -
 -                     53                                   C                  -
 -                     54                                   C                  -
 -                     55                                   C                  -
 -                     56                                   C                  -
 -                     57                                   C                  -
 -                     58                                   C                  -
 -                     59                                   C                  -
 -                     60                                   C                  -
 -                     61                                   C                  -
 -                     62                                   C                  -
 -                     63                                   C                  -
 -                     64                                   C                  -
 -                     65                                   C                  -
 -                     66                                   C                  -
 -                     67                                   C                  -
 -                     68                                   C                  -
 -                     69                                   C                  -
 -                     70                                   C                  -
 -                     71                                   C                  -
 -                     72                                   C                  -
 -                     73                                   C                  -
 -                     74                                   C                  -
 -                     75                                   C                  -
 -                     76                                   C                  -
 -                     77                                   C                  -
 -                     78                                   C                  -
 -                     79                                   C                  -
 -                     80                                   C                  -
 -                     81                                   C                  -
 -                     82                                   C                  -
 -                     83                                   C                  -
 -                     84                                   C                  -
 -                     85                                   C                  -
 -                     86                                   C                  -
 -                     87                                   C                  -
 -                     88                                   C                  -
 -                     89                                   C                  -
 -                     90                                   C                  -
 -                     91                                   C                  -
 -                     92                                   C                  -
 -                     93                                   C                  -
 -                     94                                   C                  -
 -                     95                                   C                  -
 -                     96                                   C                  -
 -                     97                                   C                  -
 -                     98                                   C                  -
 -                     99                                   C                  -
 -                    100                                   C                  -
 -                    101                                   C                  -
 -                    102                                   C                  -
 -                    103                                   C                  -
 -                    104                                   C                  -
 -                    105                                   C                  -
 -                    106                                   C                  -
 -                    107                                   C                  -
 -                    108                                   C                  -
 -                    109                                   C                  -
 -                    110                                   C                  -
 -                    111                                   C                  -
 -                    112                                   C                  -
 -                    113                                   C                  -
 -                    114                                   C                  -
 -                    115                                   C                  -
 -                    116                                   C                  -
 -                    117                                   C                  -
 -                    118                                   C                  -
 -                    119                                   C                  -
 -                    120                                   C                  -
 -                    121                                   C                  -
 -                    122                                   C                  -
 -                    123                                   C                  -
 -                    124                                   C                  -
 -                    125                                   C                  -
 -                    126                                   C                  -
 -                    127                                   C                  -
 -                    128                                   C                  -
 -                    129                                   C                  -
 -                    130                                   C                  -
 -                    131                                   C                  -
 -                    132                                   C                  -
 -                    133                                   C                  -
 -                    134                                   C                  -
 -                    135                                   C                  -
 -                    136                                   C                  -
 -                    137                                   C                  -
 -                    138                                   C                  -
 -                    139                                   C                  -
 -                    140                                   C                  -
 -                    141                                   C                  -
 -                    142                                   C                  -
 -                    143                                   C                  -
 -                    144                                   C                  -
 -                    145                                   C                  -
 -                    146                                   C                  -
 -                    147                                   C                  -
 -                    148                                   C                  -
 -                    149                                   C                  -
 -                    150                                   C                  -
 -                    151                                   C                  -
 -                    152                                   C                  -
 -                    153                                   C                  -
 -                    154                                   C                  -
 -                    155                                   C                  -
 -                    156                                   C                  -
 -                    157                                   C                  -
 -                    158                                   C                  -
 -                    159                                   C                  -
 -                    160                                   C                  -
 -                    161                                   C                  -
 -                    162                                   C                  -
 -                    163                                   C                  -
 -                    164                                   C                  -
 -                    165                                   C                  -
 -                    166                                   C                  -
 -                    167                                   C                  -
 -                    168                                   C                  -
 -                    169                                   C                  -
 -                    170                                   C                  -
 -                    171                                   C                  -
 -                    172                                   C                  -
 -                    173                                   C                  -
 -                    174                                   C                  -
 -                    175                                   C                  -
 -                    176                                   C                  -
 -                    177                                   C                  -
 -                    178                                   C                  -
 -                    179                                   C                  -
 -                    180                                   C                  -
 -                    181                                   C                  -
 -                    182                                   C                  -
 -                    183                                   C                  -
 -                    184                                   C                  -
 -                    185                                   C                  -
 -                    186                                   C                  -
 -                    187                                   C                  -
 -                    188                                   C                  -
 -                    189                                   C                  -
 -                    190                                   C                  -
 -                    191                                   C                  -
 -                    192                                   C                  -
 -                    193                                   C                  -
 -                    194                                   C                  -
 -                    195                                   C                  -
 -                    196                                   C                  -
 -                    197                                   C                  -
 -                    198                                   C                  -
 -                    199                                   C                  -
 -                    200                                   C                  -
 -                    201                                   C                  -
 -                    202                                   C                  -
 -                    203                                   C                  -
 -                    204                                   C                  -
 -                    205                                   C                  -
 -                    206                                   C                  -
 -                    207                                   C                  -
 -                    208                                   C                  -
 -                    209                                   C                  -
 -                    210                                   C                  -
 -                    211                                   C                  -
 -                    212                                   C                  -
 -                    213                                   C                  -
 -                    214                                   C                  -
 -                    215                                   C                  -
 -                    216                                   C                  -
 -                    217                                   C                  -
 -                    218                                   C                  -
 -                    219                                   C                  -
 -                    220                                   C                  -
 -                    221                                   C                  -
 -                    222                                   C                  -
 -                    223                                   C                  -
 -                    224                                   C                  -
 -                    225                                   Na_ghost           -
 -------------------------------------------------------------------------------

 *******************************************************************************
 *******************************************************************************
 **                                                                           **
 **     #####                         ##              ##                      **
 **    ##   ##            ##          ##              ##                      **
 **   ##     ##                       ##            ######                    **
 **   ##     ##  ##   ##  ##   #####  ##  ##   ####   ##    #####    #####    **
 **   ##     ##  ##   ##  ##  ##      ## ##   ##      ##   ##   ##  ##   ##   **
 **   ##  ## ##  ##   ##  ##  ##      ####     ###    ##   ######   ######    **
 **    ##  ###   ##   ##  ##  ##      ## ##      ##   ##   ##       ##        **
 **     #######   #####   ##   #####  ##  ##  ####    ##    #####   ##        **
 **           ##                                                    ##        **
 **                                                                           **
 **                                                ... make the atoms dance   **
 **                                                                           **
 **            Copyright (C) by CP2K developers group (2000-2022)             **
 **                      J. Chem. Phys. 152, 194103 (2020)                    **
 **                                                                           **
 *******************************************************************************


 TOTAL NUMBERS AND MAXIMUM NUMBERS

  Total number of            - Atomic kinds:                                   2
                             - Atoms:                                        225
                             - Shell sets:                                   225
                             - Shells:                                      1125
                             - Primitive Cartesian functions:               1127
                             - Cartesian basis functions:                   3145
                             - Spherical basis functions:                   2921

  Maximum angular momentum of- Orbital basis functions:                        2
                             - Local part of the GTH pseudopotential:          2
                             - Non-local part of the GTH pseudopotential:      0


 SCF PARAMETERS         Density guess:                                    ATOMIC
                        --------------------------------------------------------
                        max_scf:                                             300
                        max_scf_history:                                       0
                        max_diis:                                              4
                        --------------------------------------------------------
                        eps_scf:                                        3.00E-07
                        eps_scf_history:                                0.00E+00
                        eps_diis:                                       1.00E-01
                        eps_eigval:                                     1.00E-05
                        --------------------------------------------------------
                        level_shift [a.u.]:                             0.000000
                        added MOs                                       100    0
                        --------------------------------------------------------
                        Mixing method:                            BROYDEN_MIXING
                                                charge density mixing in g-space
                        --------------------------------------------------------
                        Smear method:                                FERMI_DIRAC
                        Electronic temperature [K]:                        300.0
                        Electronic temperature [a.u.]:                  9.50E-04
                        Accuracy threshold:                             1.00E-10
                        --------------------------------------------------------
                        Outer loop SCF in use 
                        No variables optimised in outer loop
                        eps_scf                                         1.00E-06
                        max_scf                                              300
                        DIIS optimization
                        DIIS buffer length                                     3
                        step_size                                       5.00E-01

 Number of electrons:                                                        896
 Number of occupied orbitals:                                                448
 Number of molecular orbitals:                                               548

 Number of orbital functions:                                               2921
 Number of independent orbital functions:                                   2921

 Extrapolation method: initial_guess


 SCF WAVEFUNCTION OPTIMIZATION

  Step     Update method      Time    Convergence         Total energy    Change
  ------------------------------------------------------------------------------
     1 NoMix/Diag. 0.10E+00  125.6     0.92858505     -1265.9121593170 -1.27E+03
     2 Broy./Diag. 0.10E+00  162.4     0.26359218     -1214.9895638009  5.09E+01
     3 Broy./Diag. 0.10E+00  189.1     0.05098886     -1222.9847035753 -8.00E+00
     4 Broy./Diag. 0.10E+00  164.7     0.14859464     -1255.9747373805 -3.30E+01
     5 Broy./Diag. 0.10E+00  185.2     0.12752959     -1269.1446843240 -1.32E+01
     6 Broy./Diag. 0.10E+00  192.1     0.08368452     -1270.0228830688 -8.78E-01
     7 Broy./Diag. 0.10E+00  186.6     0.03857452     -1270.7376021150 -7.15E-01
     8 Broy./Diag. 0.10E+00  187.3     0.01194363     -1271.6806459299 -9.43E-01
     9 Broy./Diag. 0.10E+00  172.6     0.00961843     -1272.1591448978 -4.78E-01
    10 Broy./Diag. 0.10E+00  187.1     0.01314115     -1272.5777103496 -4.19E-01
    11 Broy./Diag. 0.10E+00  177.8     0.00494103     -1272.7190673011 -1.41E-01
    12 Broy./Diag. 0.10E+00  177.4     0.00268790     -1273.0272881427 -3.08E-01
    13 Broy./Diag. 0.10E+00  177.0     0.00272409     -1273.2843785647 -2.57E-01
    14 Broy./Diag. 0.10E+00  162.7     0.00431150     -1273.4131931943 -1.29E-01
    15 Broy./Diag. 0.10E+00  178.2     0.00199913     -1273.4926695055 -7.95E-02
    16 Broy./Diag. 0.10E+00  158.8     0.00325179     -1273.4877714216  4.90E-03
    17 Broy./Diag. 0.10E+00  178.9     0.00368880     -1273.4468131982  4.10E-02
    18 Broy./Diag. 0.10E+00  191.3     0.00240429     -1273.4459505537  8.63E-04
    19 Broy./Diag. 0.10E+00  177.6     0.00081054     -1273.4857664669 -3.98E-02
    20 Broy./Diag. 0.10E+00  163.2     0.00057375     -1273.5171303407 -3.14E-02
    21 Broy./Diag. 0.10E+00  178.1     0.00101576     -1273.5440805472 -2.70E-02
    22 Broy./Diag. 0.10E+00  190.6     0.00021127     -1273.5896771963 -4.56E-02
    23 Broy./Diag. 0.10E+00  165.2     0.00019684     -1273.6145360254 -2.49E-02
    24 Broy./Diag. 0.10E+00  172.2     0.00018708     -1273.6392796888 -2.47E-02
    25 Broy./Diag. 0.10E+00  175.1     0.00036284     -1273.6545268421 -1.52E-02
    26 Broy./Diag. 0.10E+00  177.2     0.00074646     -1273.6510995460  3.43E-03
    27 Broy./Diag. 0.10E+00  187.9     0.00072286     -1273.6442646656  6.83E-03
    28 Broy./Diag. 0.10E+00  176.3     0.00062914     -1273.6402511311  4.01E-03
    29 Broy./Diag. 0.10E+00  194.8     0.00038377     -1273.6446849963 -4.43E-03
    30 Broy./Diag. 0.10E+00  206.0     0.00033946     -1273.6470084734 -2.32E-03
    31 Broy./Diag. 0.10E+00  213.6     0.00040007     -1273.6481164330 -1.11E-03
    32 Broy./Diag. 0.10E+00  209.3     0.00024598     -1273.6462489790  1.87E-03
    33 Broy./Diag. 0.10E+00  200.8     0.00011576     -1273.6470728456 -8.24E-04
    34 Broy./Diag. 0.10E+00  198.7     0.00011678     -1273.6523870705 -5.31E-03
    35 Broy./Diag. 0.10E+00  191.0     0.00008346     -1273.6565553931 -4.17E-03
    36 Broy./Diag. 0.10E+00  213.3     0.00012634     -1273.6560602697  4.95E-04
    37 Broy./Diag. 0.10E+00  160.1     0.00016357     -1273.6543866996  1.67E-03
    38 Broy./Diag. 0.10E+00  184.1     0.00011817     -1273.6535743765  8.12E-04
    39 Broy./Diag. 0.10E+00  199.8     0.00010192     -1273.6551413733 -1.57E-03
    40 Broy./Diag. 0.10E+00  177.7     0.00007223     -1273.6560681271 -9.27E-04
    41 Broy./Diag. 0.10E+00  201.6     0.00010631     -1273.6565937566 -5.26E-04
    42 Broy./Diag. 0.10E+00  175.2     0.00012372     -1273.6562249500  3.69E-04
    43 Broy./Diag. 0.10E+00  197.0     0.00006292     -1273.6565143504 -2.89E-04
    44 Broy./Diag. 0.10E+00  203.6     0.00004430     -1273.6582458950 -1.73E-03
    45 Broy./Diag. 0.10E+00  214.2     0.00004455     -1273.6599064808 -1.66E-03
    46 Broy./Diag. 0.10E+00  208.5     0.00003779     -1273.6606077723 -7.01E-04
    47 Broy./Diag. 0.10E+00  190.8     0.00005045     -1273.6603740922  2.34E-04
    48 Broy./Diag. 0.10E+00  192.9     0.00006570     -1273.6601862715  1.88E-04
    49 Broy./Diag. 0.10E+00  204.4     0.00006659     -1273.6604420326 -2.56E-04
    50 Broy./Diag. 0.10E+00  177.0     0.00005873     -1273.6615024747 -1.06E-03
    51 Broy./Diag. 0.10E+00  171.1     0.00007033     -1273.6620426178 -5.40E-04
    52 Broy./Diag. 0.10E+00  180.6     0.00006650     -1273.6623194041 -2.77E-04
[...]
    99 Broy./Diag. 0.10E+00   53.0     0.00000269     -1320.8649637434 -1.55E-05
   100 Broy./Diag. 0.10E+00   59.2     0.00000275     -1320.8649606477  3.10E-06
   101 Broy./Diag. 0.10E+00   57.7     0.00000141     -1320.8649438107  1.68E-05
   102 Broy./Diag. 0.10E+00   38.2     0.00000081     -1320.8649189774  2.48E-05
   103 Broy./Diag. 0.10E+00   21.5     0.00000163     -1320.8648834366  3.55E-05
   104 Broy./Diag. 0.10E+00   20.8     0.00000183     -1320.8648633927  2.00E-05
   105 Broy./Diag. 0.10E+00   20.8     0.00000174     -1320.8648490997  1.43E-05
   106 Broy./Diag. 0.10E+00   21.0     0.00000127     -1320.8648364580  1.26E-05
   107 Broy./Diag. 0.10E+00   21.0     0.00000070     -1320.8648335605  2.90E-06
   108 Broy./Diag. 0.10E+00   20.5     0.00000082     -1320.8648323887  1.17E-06
   109 Broy./Diag. 0.10E+00   20.5     0.00000079     -1320.8648383586 -5.97E-06
   110 Broy./Diag. 0.10E+00   20.6     0.00000105     -1320.8648506468 -1.23E-05
   111 Broy./Diag. 0.10E+00   20.4     0.00000054     -1320.8648676576 -1.70E-05
   112 Broy./Diag. 0.10E+00   20.3     0.00000025     -1320.8648842622 -1.66E-05

  *** SCF run converged in   112 steps ***


  Electronic density on regular grids:       -905.0003219785       -0.0003219785
  Core density on regular grids:              904.9999999992       -0.0000000008
  Total charge density on r-space grids:       -0.0003219793
  Total charge density g-space grids:          -0.0003219793

  Overlap energy of the core charge distribution:               0.00005632564276
  Self energy of the core charge distribution:              -3083.64826578983366
  Core Hamiltonian energy:                                    967.96372160982150
  Hartree energy:                                            1193.52807379107207
  Exchange-correlation energy:                               -398.43739920901487
  Dispersion energy:                                           -0.26346873087400
  Electronic entropic energy:                                  -0.00760225592941
  Fermi energy:                                                -0.14142827633074

  Total energy:                                             -1320.86488426217443

  outer SCF iter =    1 RMS gradient =   0.25E-06 energy =      -1320.8648842622
  outer SCF loop converged in   1 iterations or  112 steps


 *** WARNING in qs_loc_utils.F:1500 :: User requested the calculation of ***
 *** the localized wavefunction but the section LOCALIZE was not         ***
 *** specified. Localization will not be performed!                      ***


 -------------------------------------------------------------------------------
 -                                                                             -
 -                                 BSSE RESULTS                                -
 -                                                                             -
 -                 CP-corrected Total energy:    -1320.863274                  -
 -                                                                             -
 -                       1-body contribution:    -1273.657599                  -
 -                       1-body contribution:      -47.165080                  -
 -                                                                             -
 -                       2-body contribution:       -0.040595                  -
 -                 BSSE-free interaction energy:       -0.040595               -
 -------------------------------------------------------------------------------

 -------------------------------------------------------------------------------
 -                                                                             -
 -                                DBCSR STATISTICS                             -
 -                                                                             -
 -------------------------------------------------------------------------------
 COUNTER                                    TOTAL       BLAS       SMM       ACC
 flops     9 x     9 x     9                96228     100.0%      0.0%      0.0%
 flops     9 x     9 x    32               637632     100.0%      0.0%      0.0%
 flops     9 x     9 x   132              2010096     100.0%      0.0%      0.0%
 flops     9 x     9 x   137              2485728     100.0%      0.0%      0.0%
 flops     9 x     9 x   160              5339520     100.0%      0.0%      0.0%
 flops     9 x    13 x     9              7684794     100.0%      0.0%      0.0%
 flops    13 x     9 x     9              8030178     100.0%      0.0%      0.0%
 flops     9 x     9 x   128              8543232     100.0%      0.0%      0.0%
 flops     9 x    13 x    32             81971136     100.0%      0.0%      0.0%
 flops    13 x     9 x    32             85655232     100.0%      0.0%      0.0%
 flops     9 x    13 x   132            258409008     100.0%      0.0%      0.0%
 flops    13 x     9 x   132            270022896     100.0%      0.0%      0.0%
 flops     9 x    13 x   137            319554144     100.0%      0.0%      0.0%
 flops    13 x     9 x   137            333916128     100.0%      0.0%      0.0%
 flops     9 x    13 x   160            686424960     100.0%      0.0%      0.0%
 flops    13 x     9 x   160            717275520     100.0%      0.0%      0.0%
 flops     9 x    13 x   128           1098279936     100.0%      0.0%      0.0%
 flops    13 x     9 x   128           1147640832     100.0%      0.0%      0.0%
 flops    13 x    13 x     9           1800985680     100.0%      0.0%      0.0%
 flops    13 x    13 x    32          19210513920     100.0%      0.0%      0.0%
 flops    13 x    13 x   137          74889767680     100.0%      0.0%      0.0%
 flops    13 x    13 x   132         108879101760     100.0%      0.0%      0.0%
 flops    13 x    13 x   160         219437171200     100.0%      0.0%      0.0%
 flops    13 x    13 x   128         351099473920     100.0%      0.0%      0.0%
 flops inhomo. stacks                           0       0.0%      0.0%      0.0%
 flops total                       780.350991E+09     100.0%      0.0%      0.0%
 flops max/rank                     53.558161E+09     100.0%      0.0%      0.0%
 matmuls inhomo. stacks                         0       0.0%      0.0%      0.0%
 matmuls total                           18779549     100.0%      0.0%      0.0%
 number of processed stacks                 28537     100.0%      0.0%      0.0%
 average stack size                                   658.1       0.0       0.0
 marketing flops                     2.206829E+12
 -------------------------------------------------------------------------------
 # multiplications                            347
 max memory usage/rank               2.008584E+09
 # max total images/rank                        1
 # max 3D layers                                1
 # MPI messages exchanged                   33312
 MPI messages size (bytes):
  total size                        22.254797E+09
  min size                           0.000000E+00
  max size                         943.360000E+03
  average size                     668.071500E+03
 MPI breakdown and total messages size (bytes):
             size <=      128                2250                        0
       128 < size <=     8192                 150                    97200
      8192 < size <=    32768                   0                        0
     32768 < size <=   131072                 984                 51736752
    131072 < size <=  4194304               29928              22202969472
   4194304 < size <= 16777216                   0                        0
  16777216 < size                               0                        0
 -------------------------------------------------------------------------------
 -                                                                             -
 -                      DBCSR MESSAGE PASSING PERFORMANCE                      -
 -                                                                             -
 -------------------------------------------------------------------------------
 ROUTINE             CALLS      AVE VOLUME [Bytes]
 MP_Bcast               25                     12.
 MP_Allreduce         2501                      8.
 MP_Alltoall          9776                 613756.
 MP_ISend             5552                 258490.
 MP_IRecv             5552                 237640.
 -------------------------------------------------------------------------------

 -------------------------------------------------------------------------------
 -                                                                             -
 -                                DBM STATISTICS                               -
 -                                                                             -
 -------------------------------------------------------------------------------
    M  x    N  x    K                                          COUNT     PERCENT
 -------------------------------------------------------------------------------

 -------------------------------------------------------------------------------
 -                                                                             -
 -                                GRID STATISTICS                              -
 -                                                                             -
 -------------------------------------------------------------------------------
 LP    KERNEL             BACKEND                              COUNT     PERCENT
 4     collocate ortho    REF                               38522768      49.83%
 4     integrate ortho    REF                               38050096      49.22%
 3     collocate ortho    REF                                 347500       0.45%
 3     integrate ortho    REF                                 343330       0.44%
 2     collocate ortho    REF                                  13524       0.02%
 2     integrate ortho    REF                                  13328       0.02%
 0     collocate general  REF                                  10800       0.01%
 -------------------------------------------------------------------------------

 MEMORY| Estimated peak process memory [MiB]                                1916

 -------------------------------------------------------------------------------
 -                                                                             -
 -                         MESSAGE PASSING PERFORMANCE                         -
 -                                                                             -
 -------------------------------------------------------------------------------

 ROUTINE             CALLS      AVE VOLUME [Bytes]
 MP_Group               24
 MP_Bcast              847                1143070.
 MP_Allreduce         4491                   1702.
 MP_Sync               396
 MP_Alltoall          4611               63123527.
 MP_SendRecv         14724                 475480.
 MP_ISendRecv        10410                 444928.
 MP_Wait             25843
 MP_comm_split          25
 MP_ISend            11224                3185888.
 MP_IRecv            11224                3186011.
 MP_Recv               253                 731218.
 -------------------------------------------------------------------------------


 -------------------------------------------------------------------------------
 -                                                                             -
 -                           R E F E R E N C E S                               -
 -                                                                             -
 -------------------------------------------------------------------------------
 
 CP2K version 2023.1, the CP2K developers group (2023).
 CP2K is freely available from https://www.cp2k.org/ .

 Kuehne,Thomas D.; Iannuzzi,Marcella; Del Ben,Mauro;
 Rybkin,Vladimir V.; Seewald,Patrick; Stein,Frederick; Laino,Teodoro;
 Khaliullin,Rustam Z.; Schuett,Ole; Schiffmann,Florian; Golze,Dorothea;
 Wilhelm,Jan; Chulkov,Sergey; Bani-Hashemian,Mohammad Hossein;
 Weber,Valery; Borstnik,Urban; Taillefumier,Mathieu;
 Jakobovits,Alice Shoshana; Lazzaro,Alfio; Pabst,Hans; Mueller,Tiziano;
 Schade,Robert; Guidon,Manuel; Andermatt,Samuel; Holmberg,Nico;
 Schenter,Gregory K.; Hehn,Anna; Bussy,Augustin; Belleflamme,Fabian;
 Tabacchi,Gloria; Gloess,Andreas; Lass,Michael; Bethune,Iain;
 Mundy,Christopher J.; Plessl,Christian; Watkins,Matt;
 VandeVondele,Joost; Krack,Matthias; Hutter,Juerg. 
 The Journal of Chemical Physics, 152 (19), (2020). 
 CP2K: An electronic structure and molecular dynamics software package -
 Quickstep: Efficient and accurate electronic structure calculations.
 https://doi.org/10.1063/5.0007045

 Goerigk, Lars; Hansen, Andreas; Bauer, Christoph; Ehrlich, Stephan;
 Najibi, Asim; Grimme, Stefan. , 19 (48), (2017). 
 A look at the density functional theory zoo with the advanced GMTKN55 database
 for general main group thermochemistry, kinetics and noncovalent interactions.
 https://doi.org/10.1039/C7CP04913G

 Schuett, Ole; Messmer, Peter; Hutter, Juerg; VandeVondele, Joost. 
 Electronic Structure Calculations on Graphics Processing Units, John
 Wiley & Sons, Ltd, 173-190 (2016). 
 GPU-Accelerated Sparse Matrix-Matrix Multiplication for
 Linear Scaling Density Functional Theory.
 https://doi.org/10.1002/9781118670712.ch8

 Borstnik, U; VandeVondele, J; Weber, V; Hutter, J. 
 PARALLEL COMPUTING, 40 (5-6), 47-58 (2014). 
 Sparse matrix multiplication: The distributed block-compressed sparse
 row library.
 https://doi.org/10.1016/j.parco.2014.03.012

 Hutter, J; Iannuzzi, M; Schiffmann, F; VandeVondele, J. 
 WIREs Comput Mol Sci., 4 (1), 15-25 (2014). 
 CP2K: atomistic simulations of condensed matter systems.
 https://doi.org/10.1002/wcms.1159

 Marek, A; Blum, V; Johanni, R; Havu, V; Lang, B; Auckenthaler, T;
 Heinecke, A; Bungartz, H; Lederer, H. 
 Journal of Physics: Condensed Matter, 26 (21), (2014). 
 The ELPA library: scalable parallel eigenvalue solutions for
 electronic structure
 theory and computational science.
 https://doi.org/10.1088/0953-8984/26/21/213201

 Grimme, S; Ehrlich, S; Goerigk, L. 
 JOURNAL OF COMPUTATIONAL CHEMISTRY, 32, 1456 (2011). 
 Effect of the damping function in dispersion corrected density functional theory.
 https://doi.org/10.1002/jcc.21759

 Grimme, S; Antony, J; Ehrlich, S; Krieg, H. 
 JOURNAL OF CHEMICAL PHYSICS, 132 (15), 154104 (2010). 
 A consistent and accurate ab initio parametrization of density
 functional dispersion correction (DFT-D) for the 94 elements H-Pu.
 https://doi.org/10.1063/1.3382344

 VandeVondele, J; Hutter, J. 
 JOURNAL OF CHEMICAL PHYSICS, 127 (11), 114105 (2007). 
 Gaussian basis sets for accurate calculations on molecular systems in
 gas and condensed phases.
 https://doi.org/10.1063/1.2770708

 Krack, M. 
 THEORETICAL CHEMISTRY ACCOUNTS, 114 (1-3), 145-152 (2005). 
 Pseudopotentials for H to Kr optimized for gradient-corrected
 exchange-correlation functionals.
 https://doi.org/10.1007/s00214-005-0655-y

 VandeVondele, J; Krack, M; Mohamed, F; Parrinello, M; Chassaing, T;
 Hutter, J. COMPUTER PHYSICS COMMUNICATIONS, 167 (2), 103-128 (2005). 
 QUICKSTEP: Fast and accurate density functional calculations using a
 mixed Gaussian and plane waves approach.
 https://doi.org/10.1016/j.cpc.2004.12.014

 Frigo, M; Johnson, SG. 
 PROCEEDINGS OF THE IEEE, 93 (2), 216-231 (2005). 
 The design and implementation of FFTW3.
 https://doi.org/10.1109/JPROC.2004.840301

 Hartwigsen, C; Goedecker, S; Hutter, J. 
 PHYSICAL REVIEW B, 58 (7), 3641-3662 (1998). 
 Relativistic separable dual-space Gaussian pseudopotentials from H to Rn.
 https://doi.org/10.1103/PhysRevB.58.3641

 Lippert, G; Hutter, J; Parrinello, M. 
 MOLECULAR PHYSICS, 92 (3), 477-487 (1997). 
 A hybrid Gaussian and plane wave density functional scheme.
 https://doi.org/10.1080/002689797170220

 Perdew, JP; Burke, K; Ernzerhof, M. 
 PHYSICAL REVIEW LETTERS, 77 (18), 3865-3868 (1996). 
 Generalized gradient approximation made simple.
 https://doi.org/10.1103/PhysRevLett.77.3865

 Goedecker, S; Teter, M; Hutter, J. 
 PHYSICAL REVIEW B, 54 (3), 1703-1710 (1996). 
 Separable dual-space Gaussian pseudopotentials.
 https://doi.org/10.1103/PhysRevB.54.1703


 -------------------------------------------------------------------------------
 -                                                                             -
 -                                T I M I N G                                  -
 -                                                                             -
 -------------------------------------------------------------------------------
 SUBROUTINE                       CALLS  ASD         SELF TIME        TOTAL TIME
                                MAXIMUM       AVERAGE  MAXIMUM  AVERAGE  MAXIMUM
 CP2K                                 1  1.0     4.30     4.46 55901.67 55901.68
 qs_energies                          5  2.0     0.00     0.01 55855.04 55855.52
 scf_env_do_scf                       5  3.0     0.00     0.02 55746.97 55747.44
 scf_env_do_scf_inner_loop          347  4.0     0.08     0.13 55746.96 55747.44
 qs_scf_new_mos                     347  5.0     0.03     0.08 48583.51 48585.94
 eigensolver                        347  6.0     0.06     0.11 48000.04 48004.78
 cp_fm_diag_elpa                    322  7.0     0.01     0.03 44157.58 44164.42
 cp_fm_diag_elpa_base               322  8.0 44132.01 44139.42 44142.77 44143.48
 cp_fm_triangular_multiply         1041  7.0  3785.35  3797.63  3785.35  3797.63
 qs_ks_update_qs_env                347  5.0     0.01     0.02  3334.90  3338.37
 rebuild_ks_matrix                  347  6.0     0.00     0.01  3314.62  3318.45
 qs_ks_build_kohn_sham_matrix       347  7.0     0.18     0.24  3314.62  3318.44
 qs_rho_update_rho_low              352  5.0     0.01     0.02  2645.89  2647.75
 calculate_rho_elec                 352  6.0     7.57     7.77  2645.88  2647.75
 density_rs2pw                      352  7.0     0.08     0.12  2108.19  2402.90
 sum_up_and_integrate               347  8.0    12.43    13.06  2223.59  2227.70
 integrate_v_rspace                 347  9.0     0.04     0.08  2211.15  2215.69
 rs_pw_transfer                    2801  9.5     0.12     0.18  1760.12  2053.45
 pw_transfer                       4536  8.9     1.03     1.26  1573.43  1590.47
 fft_wrap_pw1pw2                   3842  9.9     0.12     0.18  1544.62  1562.05
 grid_collocate_task_list           352  7.0   493.46  1554.50   493.46  1554.50
 grid_integrate_task_list           347 10.0   442.00  1495.16   442.00  1495.16
 mp_alltoall_d11v                  4893  9.3  1179.50  1459.35  1179.50  1459.35
 mp_waitany                       11224 11.5  1144.41  1437.01  1144.41  1437.01
 rs_pw_transfer_RS2PW_150           357  9.0    31.41    35.33   907.50  1420.21
 fft_wrap_pw1pw2_150               1745 10.2   130.24   138.76  1390.26  1411.35
 rs_gather_matrices                 347 10.0     0.68     0.78  1080.04  1361.24
 gspace_mixing                      342  5.0     7.38     7.60  1183.40  1183.74
 fft3d_ps                          3842 11.9   551.42   573.75  1095.13  1118.15
 -------------------------------------------------------------------------------

 The number of warnings for this run is : 6
 
 -------------------------------------------------------------------------------
  **** **** ******  **  PROGRAM ENDED AT                 2025-02-28 07:54:30.898
 ***** ** ***  *** **   PROGRAM RAN ON                                sebnode127
 **    ****   ******    PROGRAM RAN BY                                    luehrs
 ***** **    ** ** **   PROGRAM PROCESS ID                                953318
  **** **  *******  **  PROGRAM STOPPED IN /home/luehrs/PhD/Sodium_batteries/Sod
                                           ium-graphene-curvature/Curved_surface
                                           /Zig-Zag4
