 DBCSR| Multiplication driver                                               XSMM
 DBCSR| Multrec recursion limit                                              512
 DBCSR| Multiplication stack size                                           1000
 DBCSR| Maximum elements for images                                    UNLIMITED
 DBCSR| Multiplicative factor virtual images                                   1
 DBCSR| Multiplication size stacks                                             3
 DBCSR| Number of 3D layers                                               SINGLE
 DBCSR| Use MPI memory allocation                                              T
 DBCSR| Use RMA algorithm                                                      F
 DBCSR| Use Communication thread                                               T
 DBCSR| Communication thread load                                             87


  **** **** ******  **  PROGRAM STARTED AT               2023-10-02 14:36:27.190
 ***** ** ***  *** **   PROGRAM STARTED ON                            sebnode107
 **    ****   ******    PROGRAM STARTED BY                                luehrs
 ***** **    ** ** **   PROGRAM PROCESS ID                               1960310
  **** **  *******  **  PROGRAM STARTED IN /home/luehrs/PhD/Sodium-graphene-edge
                                           /graphene_zig-zag/No-hydrogen/Sodium

 CP2K| version string:                    CP2K version 7.0 (Development Version)
 CP2K| source code revision number:                                             
 CP2K| cp2kflags: libint fftw3 libxc parallel mpi3 scalapack xsmm libderiv_max_a
 CP2K|            m1=8 libint_max_am=9 max_contr=4
 CP2K| is freely available from                            https://www.cp2k.org/
 CP2K| Program compiled at                         Sun Jun 24 14:37:16 CEST 2018
 CP2K| Program compiled on                                            sebstorage
 CP2K| Program compiled for                                Linux-x86-64-gfortran
 CP2K| Data directory path    /home/brehm/Software_Batchnode/2018/Source/cp2k_18
 CP2K| Input file name                                         input.zig-zag.inp

 GLOBAL| Force Environment number                                              1
 GLOBAL| Basis set file name                                      ./BASIS_MOLOPT
 GLOBAL| Potential file name                                    ./GTH_POTENTIALS
 GLOBAL| MM Potential file name                                     MM_POTENTIAL
 GLOBAL| Coordinate file name           graphene_zig-zag_no-hydrogen_sodium_rela
 GLOBAL| Method name                                                        CP2K
 GLOBAL| Project name                               graphene_zig_zag_sodium_BSSE
 GLOBAL| Preferred FFT library                                             FFTW3
 GLOBAL| Preferred diagonalization lib.                                       SL
 GLOBAL| Run type                                                           BSSE
 GLOBAL| All-to-all communication in single precision                          F
 GLOBAL| FFTs using library dependent lengths                                  F
 GLOBAL| Global print level                                               MEDIUM
 GLOBAL| Total number of message passing processes                            16
 GLOBAL| Number of threads for this process                                    1
 GLOBAL| This output is from process                                           0
 GLOBAL| CPU model name :  Intel(R) Xeon(R) CPU E5-2620 v4 @ 2.10GHz

 MEMORY| system memory details [Kb]
 MEMORY|                        rank 0           min           max       average
 MEMORY| MemTotal             65847880      65847880      65847880      65847880
 MEMORY| MemFree              63240484      63240484      63240484      63240484
 MEMORY| Buffers                133224        133224        133224        133224
 MEMORY| Cached                 276860        276860        276860        276860
 MEMORY| Slab                   662728        662728        662728        662728
 MEMORY| SReclaimable           310020        310020        310020        310020
 MEMORY| MemLikelyFree        63960588      63960588      63960588      63960588


 *** Fundamental physical constants (SI units) ***

 *** Literature: B. J. Mohr and B. N. Taylor,
 ***             CODATA recommended values of the fundamental physical
 ***             constants: 2006, Web Version 5.1
 ***             http://physics.nist.gov/constants

 Speed of light in vacuum [m/s]                             2.99792458000000E+08
 Magnetic constant or permeability of vacuum [N/A**2]       1.25663706143592E-06
 Electric constant or permittivity of vacuum [F/m]          8.85418781762039E-12
 Planck constant (h) [J*s]                                  6.62606896000000E-34
 Planck constant (h-bar) [J*s]                              1.05457162825177E-34
 Elementary charge [C]                                      1.60217648700000E-19
 Electron mass [kg]                                         9.10938215000000E-31
 Electron g factor [ ]                                     -2.00231930436220E+00
 Proton mass [kg]                                           1.67262163700000E-27
 Fine-structure constant                                    7.29735253760000E-03
 Rydberg constant [1/m]                                     1.09737315685270E+07
 Avogadro constant [1/mol]                                  6.02214179000000E+23
 Boltzmann constant [J/K]                                   1.38065040000000E-23
 Atomic mass unit [kg]                                      1.66053878200000E-27
 Bohr radius [m]                                            5.29177208590000E-11

 *** Conversion factors ***

 [u] -> [a.u.]                                              1.82288848426455E+03
 [Angstrom] -> [Bohr] = [a.u.]                              1.88972613288564E+00
 [a.u.] = [Bohr] -> [Angstrom]                              5.29177208590000E-01
 [a.u.] -> [s]                                              2.41888432650478E-17
 [a.u.] -> [fs]                                             2.41888432650478E-02
 [a.u.] -> [J]                                              4.35974393937059E-18
 [a.u.] -> [N]                                              8.23872205491840E-08
 [a.u.] -> [K]                                              3.15774647902944E+05
 [a.u.] -> [kJ/mol]                                         2.62549961709828E+03
 [a.u.] -> [kcal/mol]                                       6.27509468713739E+02
 [a.u.] -> [Pa]                                             2.94210107994716E+13
 [a.u.] -> [bar]                                            2.94210107994716E+08
 [a.u.] -> [atm]                                            2.90362800883016E+08
 [a.u.] -> [eV]                                             2.72113838565563E+01
 [a.u.] -> [Hz]                                             6.57968392072181E+15
 [a.u.] -> [1/cm] (wave numbers)                            2.19474631370540E+05
 [a.u./Bohr**2] -> [1/cm]                                   5.14048714338585E+03
 

 CELL_TOP| Volume [angstrom^3]:                                        13612.534
 CELL_TOP| Vector a [angstrom    19.648     0.000     0.000    |a| =      19.648
 CELL_TOP| Vector b [angstrom    20.000    34.641     0.000    |b| =      40.000
 CELL_TOP| Vector c [angstrom     0.000     0.000    20.000    |c| =      20.000
 CELL_TOP| Angle (b,c), alpha [degree]:                                   90.000
 CELL_TOP| Angle (a,c), beta  [degree]:                                   90.000
 CELL_TOP| Angle (a,b), gamma [degree]:                                   60.000
 CELL_TOP| Requested initial symmetry:                                 TRICLINIC
 CELL_TOP| Numerically orthorhombic:                                          NO

 GENERATE|  Preliminary Number of Bonds generated:                             0
 GENERATE|  Achieved consistency in connectivity generation.

 CELL| Volume [angstrom^3]:                                            13612.534
 CELL| Vector a [angstrom]:      19.648     0.000     0.000    |a| =      19.648
 CELL| Vector b [angstrom]:      20.000    34.641     0.000    |b| =      40.000
 CELL| Vector c [angstrom]:       0.000     0.000    20.000    |c| =      20.000
 CELL| Angle (b,c), alpha [degree]:                                       90.000
 CELL| Angle (a,c), beta  [degree]:                                       90.000
 CELL| Angle (a,b), gamma [degree]:                                       60.000
 CELL| Requested initial symmetry:                                     TRICLINIC
 CELL| Numerically orthorhombic:                                              NO

 CELL_REF| Volume [angstrom^3]:                                        13612.534
 CELL_REF| Vector a [angstrom    19.648     0.000     0.000    |a| =      19.648
 CELL_REF| Vector b [angstrom    20.000    34.641     0.000    |b| =      40.000
 CELL_REF| Vector c [angstrom     0.000     0.000    20.000    |c| =      20.000
 CELL_REF| Angle (b,c), alpha [degree]:                                   90.000
 CELL_REF| Angle (a,c), beta  [degree]:                                   90.000
 CELL_REF| Angle (a,b), gamma [degree]:                                   60.000
 CELL_REF| Requested initial symmetry:                                 TRICLINIC
 CELL_REF| Numerically orthorhombic:                                          NO

 *******************************************************************************
 *******************************************************************************
 **                                                                           **
 **     #####                         ##              ##                      **
 **    ##   ##            ##          ##              ##                      **
 **   ##     ##                       ##            ######                    **
 **   ##     ##  ##   ##  ##   #####  ##  ##   ####   ##    #####    #####    **
 **   ##     ##  ##   ##  ##  ##      ## ##   ##      ##   ##   ##  ##   ##   **
 **   ##  ## ##  ##   ##  ##  ##      ####     ###    ##   ######   ######    **
 **    ##  ###   ##   ##  ##  ##      ## ##      ##   ##   ##       ##        **
 **     #######   #####   ##   #####  ##  ##  ####    ##    #####   ##        **
 **           ##                                                    ##        **
 **                                                                           **
 **                                                ... make the atoms dance   **
 **                                                                           **
 **            Copyright (C) by CP2K developers group (2000 - 2018)           **
 **                                                                           **
 *******************************************************************************

 DFT| Spin unrestricted (spin-polarized) Kohn-Sham calculation               UKS
 DFT| Multiplicity                                                             1
 DFT| Number of spin states                                                    2
 DFT| Charge                                                                   1
 DFT| Self-interaction correction (SIC)                                       NO
 DFT| Cutoffs: density                                              1.000000E-10
 DFT|          gradient                                             1.000000E-10
 DFT|          tau                                                  1.000000E-10
 DFT|          cutoff_smoothing_range                               0.000000E+00
 DFT| XC density smoothing                                                  NONE
 DFT| XC derivatives                                              SPLINE2_SMOOTH
 FUNCTIONAL| ROUTINE=NEW
 FUNCTIONAL| BECKE88:
 FUNCTIONAL| A. Becke, Phys. Rev. A 38, 3098 (1988) {LSD version}               
 FUNCTIONAL| LYP:
 FUNCTIONAL| C. Lee, W. Yang, R.G. Parr, Phys. Rev. B, 37, 785 (1988) {LSD versi
 FUNCTIONAL| on}                                                                
 vdW POTENTIAL|                                                   Pair Potential
 vdW POTENTIAL|          DFT-D3 (Version 3.1)
 vdW POTENTIAL|          Potential Form: S. Grimme et al, JCP 132: 154104 (2010)
 vdW POTENTIAL|          Zero Damping
 vdW POTENTIAL|          Cutoff Radius [Bohr]:                             20.00
 vdW POTENTIAL|          s6 Scaling Factor:                               1.0000
 vdW POTENTIAL|          sr6 Scaling Factor:                              1.0940
 vdW POTENTIAL|          s8 Scaling Factor:                               1.6820
 vdW POTENTIAL|          Cutoff for CN calculation:                   0.1000E-05

 QS| Method:                                                                 GPW
 QS| Density plane wave grid type                        NON-SPHERICAL FULLSPACE
 QS| Number of grid levels:                                                    4
 QS| Density cutoff [a.u.]:                                                150.0
 QS| Multi grid cutoff [a.u.]: 1) grid level                               150.0
 QS|                           2) grid level                                50.0
 QS|                           3) grid level                                16.7
 QS|                           4) grid level                                 5.6
 QS| Grid level progression factor:                                          3.0
 QS| Relative density cutoff [a.u.]:                                        20.0
 QS| Consistent realspace mapping and integration 
 QS| Interaction thresholds: eps_pgf_orb:                                1.0E-06
 QS|                         eps_filter_matrix:                          0.0E+00
 QS|                         eps_core_charge:                            1.0E-14
 QS|                         eps_rho_gspace:                             1.0E-12
 QS|                         eps_rho_rspace:                             1.0E-12
 QS|                         eps_gvg_rspace:                             1.0E-06
 QS|                         eps_ppl:                                    1.0E-02
 QS|                         eps_ppnl:                                   1.0E-08


 ATOMIC KIND INFORMATION

  1. Atomic kind: C                                     Number of atoms:     112

     Orbital Basis Set                                        DZVP-MOLOPT-SR-GTH

       Number of orbital shell sets:                                           1
       Number of orbital shells:                                               5
       Number of primitive Cartesian functions:                                5
       Number of Cartesian basis functions:                                   14
       Number of spherical basis functions:                                   13
       Norm type:                                                              2

       Normalised Cartesian orbitals:

                        Set   Shell   Orbital            Exponent    Coefficient

                          1       1    2s                5.605331       0.322515
                                                         2.113016       0.213043
                                                         0.769911      -0.209686
                                                         0.348157      -0.219794
                                                         0.128212      -0.022789

                          1       2    3s                5.605331       0.552234
                                                         2.113016       0.082072
                                                         0.769911       0.007843
                                                         0.348157       0.136893
                                                         0.128212       0.074283

                          1       3    3px               5.605331      -0.703879
                                                         2.113016      -0.642521
                                                         0.769911      -0.374851
                                                         0.348157      -0.139743
                                                         0.128212      -0.027849
                          1       3    3py               5.605331      -0.703879
                                                         2.113016      -0.642521
                                                         0.769911      -0.374851
                                                         0.348157      -0.139743
                                                         0.128212      -0.027849
                          1       3    3pz               5.605331      -0.703879
                                                         2.113016      -0.642521
                                                         0.769911      -0.374851
                                                         0.348157      -0.139743
                                                         0.128212      -0.027849

                          1       4    4px               5.605331      -0.480376
                                                         2.113016      -0.552894
                                                         0.769911      -0.316145
                                                         0.348157       0.210505
                                                         0.128212       0.076095
                          1       4    4py               5.605331      -0.480376
                                                         2.113016      -0.552894
                                                         0.769911      -0.316145
                                                         0.348157       0.210505
                                                         0.128212       0.076095
                          1       4    4pz               5.605331      -0.480376
                                                         2.113016      -0.552894
                                                         0.769911      -0.316145
                                                         0.348157       0.210505
                                                         0.128212       0.076095

                          1       5    4dx2              5.605331       0.640026
                                                         2.113016       0.274300
                                                         0.769911       0.446711
                                                         0.348157       0.028674
                                                         0.128212       0.029790
                          1       5    4dxy              5.605331       1.108557
                                                         2.113016       0.475102
                                                         0.769911       0.773726
                                                         0.348157       0.049666
                                                         0.128212       0.051599
                          1       5    4dxz              5.605331       1.108557
                                                         2.113016       0.475102
                                                         0.769911       0.773726
                                                         0.348157       0.049666
                                                         0.128212       0.051599
                          1       5    4dy2              5.605331       0.640026
                                                         2.113016       0.274300
                                                         0.769911       0.446711
                                                         0.348157       0.028674
                                                         0.128212       0.029790
                          1       5    4dyz              5.605331       1.108557
                                                         2.113016       0.475102
                                                         0.769911       0.773726
                                                         0.348157       0.049666
                                                         0.128212       0.051599
                          1       5    4dz2              5.605331       0.640026
                                                         2.113016       0.274300
                                                         0.769911       0.446711
                                                         0.348157       0.028674
                                                         0.128212       0.029790

     GTH Potential information for                                    GTH-PBE-q4

       Description:                       Goedecker-Teter-Hutter pseudopotential
                                           Goedecker et al., PRB 54, 1703 (1996)
                                          Hartwigsen et al., PRB 58, 3641 (1998)
                                                      Krack, TCA 114, 145 (2005)

       Gaussian exponent of the core charge distribution:               4.364419
       Electronic configuration (s p d ...):                               2   2

       Parameters of the local part of the GTH pseudopotential:

                          rloc        C1          C2          C3          C4
                        0.338471   -8.803674    1.339211

       Parameters of the non-local part of the GTH pseudopotential:

                   l      r(l)      h(i,j,l)

                   0    0.302576    9.622487
                   1    0.291507

  2. Atomic kind: Na                                    Number of atoms:       1

     Orbital Basis Set                                        DZVP-MOLOPT-SR-GTH

       Number of orbital shell sets:                                           1
       Number of orbital shells:                                               5
       Number of primitive Cartesian functions:                                7
       Number of Cartesian basis functions:                                    9
       Number of spherical basis functions:                                    9
       Norm type:                                                              2

       Normalised Cartesian orbitals:

                        Set   Shell   Orbital            Exponent    Coefficient

                          1       1    2s               23.518801       0.288931
                                                        11.135656       0.787174
                                                         4.647814      -0.190850
                                                         1.866708      -0.573823
                                                         0.734684      -0.276866
                                                         0.275673      -0.024211
                                                         0.049895      -0.000019

                          1       2    3s               23.518801       0.039212
                                                        11.135656       0.138585
                                                         4.647814      -0.048916
                                                         1.866708      -0.102378
                                                         0.734684      -0.139633
                                                         0.275673       0.012767
                                                         0.049895       0.077569

                          1       3    4s               23.518801       0.303698
                                                        11.135656      -0.548845
                                                         4.647814       0.534441
                                                         1.866708      -0.220920
                                                         0.734684       0.980584
                                                         0.275673      -0.653367
                                                         0.049895       0.063703

                          1       4    3px              23.518801      -2.919466
                                                        11.135656      -2.855941
                                                         4.647814      -2.579491
                                                         1.866708      -1.208264
                                                         0.734684      -0.321406
                                                         0.275673      -0.035032
                                                         0.049895      -0.000067
                          1       4    3py              23.518801      -2.919466
                                                        11.135656      -2.855941
                                                         4.647814      -2.579491
                                                         1.866708      -1.208264
                                                         0.734684      -0.321406
                                                         0.275673      -0.035032
                                                         0.049895      -0.000067
                          1       4    3pz              23.518801      -2.919466
                                                        11.135656      -2.855941
                                                         4.647814      -2.579491
                                                         1.866708      -1.208264
                                                         0.734684      -0.321406
                                                         0.275673      -0.035032
                                                         0.049895      -0.000067

                          1       5    4px              23.518801      -0.381914
                                                        11.135656      -0.488169
                                                         4.647814      -0.407378
                                                         1.866708      -0.201739
                                                         0.734684      -0.078845
                                                         0.275673       0.043427
                                                         0.049895       0.031563
                          1       5    4py              23.518801      -0.381914
                                                        11.135656      -0.488169
                                                         4.647814      -0.407378
                                                         1.866708      -0.201739
                                                         0.734684      -0.078845
                                                         0.275673       0.043427
                                                         0.049895       0.031563
                          1       5    4pz              23.518801      -0.381914
                                                        11.135656      -0.488169
                                                         4.647814      -0.407378
                                                         1.866708      -0.201739
                                                         0.734684      -0.078845
                                                         0.275673       0.043427
                                                         0.049895       0.031563

     GTH Potential information for                                    GTH-PBE-q9

       Description:                       Goedecker-Teter-Hutter pseudopotential
                                           Goedecker et al., PRB 54, 1703 (1996)
                                          Hartwigsen et al., PRB 58, 3641 (1998)
                                                      Krack, TCA 114, 145 (2005)

       Gaussian exponent of the core charge distribution:               8.937631
       Electronic configuration (s p d ...):                               3   6

       Parameters of the local part of the GTH pseudopotential:

                          rloc        C1          C2          C3          C4
                        0.236523    0.295105   -0.913885

       Parameters of the non-local part of the GTH pseudopotential:

                   l      r(l)      h(i,j,l)

                   0    0.143560   34.601492
                   1    0.129932  -14.277462


 MOLECULE KIND INFORMATION


 All atoms are their own molecule, skipping detailed information


 TOTAL NUMBERS AND MAXIMUM NUMBERS

  Total number of            - Atomic kinds:                                   2
                             - Atoms:                                        113
                             - Shell sets:                                   113
                             - Shells:                                       565
                             - Primitive Cartesian functions:                567
                             - Cartesian basis functions:                   1577
                             - Spherical basis functions:                   1465

  Maximum angular momentum of- Orbital basis functions:                        2
                             - Local part of the GTH pseudopotential:          2
                             - Non-local part of the GTH pseudopotential:      1


 MODULE QUICKSTEP:  ATOMIC COORDINATES IN angstrom

  Atom  Kind  Element       X           Y           Z          Z(eff)       Mass

       1     1 C    6    8.616720   15.012843    0.575573      4.00      12.0107
       2     1 C    6    9.850117   15.599867    0.880908      4.00      12.0107
       3     1 C    6   11.096397   14.977768    0.803852      4.00      12.0107
       4     1 C    6   12.349403   15.598622    0.887287      4.00      12.0107
       5     1 C    6   13.569802   14.996315    0.555649      4.00      12.0107
       6     1 C    6   14.791148   15.625797    0.326160      4.00      12.0107
       7     1 C    6   15.993726   15.020798   -0.033842      4.00      12.0107
       8     1 C    6   17.196409   15.611177   -0.423012      4.00      12.0107
       9     1 C    6   18.427561   14.979333   -0.576700      4.00      12.0107
      10     1 C    6   19.657841   15.572916   -0.890782      4.00      12.0107
      11     1 C    6   20.907442   14.963432   -0.731480      4.00      12.0107
      12     1 C    6   22.157499   15.583786   -0.780748      4.00      12.0107
      13     1 C    6   23.381070   15.005203   -0.432367      4.00      12.0107
      14     1 C    6   24.610297   15.637592   -0.250333      4.00      12.0107
      15     1 C    6   25.821919   15.026499    0.072205      4.00      12.0107
      16     1 C    6   27.038218   15.639947    0.372181      4.00      12.0107
      17     1 C    6   25.819153   13.545742    0.101654      4.00      12.0107
      18     1 C    6   23.369534   13.537023   -0.230049      4.00      12.0107
      19     1 C    6   20.907001   13.517472   -0.418110      4.00      12.0107
      20     1 C    6   18.442784   13.521851   -0.325816      4.00      12.0107
      21     1 C    6   15.996774   13.538130    0.013186      4.00      12.0107
      22     1 C    6   14.775119   12.830309    0.185398      4.00      12.0107
      23     1 C    6   13.554111   13.528151    0.384709      4.00      12.0107
      24     1 C    6   12.320511   12.822170    0.414768      4.00      12.0107
      25     1 C    6   11.090520   13.522621    0.540872      4.00      12.0107
      26     1 C    6    9.856289   12.827920    0.427624      4.00      12.0107
      27     1 C    6    8.623556   13.539649    0.415273      4.00      12.0107
      28     1 C    6    7.396306   12.839271    0.246700      4.00      12.0107
      29     1 C    6   24.592051   12.838908   -0.030325      4.00      12.0107
      30     1 C    6   22.137492   12.826836   -0.251450      4.00      12.0107
      31     1 C    6   19.676454   12.817420   -0.299000      4.00      12.0107
      32     1 C    6   17.220844   12.827380   -0.118758      4.00      12.0107
      33     1 C    6   24.589548   11.403518    0.024296      4.00      12.0107
      34     1 C    6   23.363509   10.683498   -0.042257      4.00      12.0107
      35     1 C    6   22.135792   11.396273   -0.127922      4.00      12.0107
      36     1 C    6   20.908163   10.676731   -0.117535      4.00      12.0107
      37     1 C    6   19.679023   11.390170   -0.151165      4.00      12.0107
      38     1 C    6   18.451148   10.675297   -0.076418      4.00      12.0107
      39     1 C    6   17.224076   11.393127   -0.041538      4.00      12.0107
      40     1 C    6   15.998309   10.677654    0.052110      4.00      12.0107
      41     1 C    6   14.773279   11.394999    0.149090      4.00      12.0107
      42     1 C    6   13.545771   10.678478    0.211254      4.00      12.0107
      43     1 C    6   12.317674   11.392964    0.305460      4.00      12.0107
      44     1 C    6   11.086025   10.680405    0.287073      4.00      12.0107
      45     1 C    6    9.855967   11.397008    0.318929      4.00      12.0107
      46     1 C    6    8.624725   10.685266    0.240816      4.00      12.0107
      47     1 C    6    7.396465   11.403403    0.208189      4.00      12.0107
      48     1 C    6    6.168843   10.688093    0.111547      4.00      12.0107
      49     1 C    6    6.167014    9.258234    0.063415      4.00      12.0107
      50     1 C    6    7.394967    8.542958    0.067605      4.00      12.0107
      51     1 C    6    8.623176    9.259091    0.154740      4.00      12.0107
      52     1 C    6    9.853512    8.543682    0.123135      4.00      12.0107
      53     1 C    6   11.084644    9.254977    0.186837      4.00      12.0107
      54     1 C    6   12.313028    8.537359    0.114866      4.00      12.0107
      55     1 C    6   13.543609    9.250648    0.135595      4.00      12.0107
      56     1 C    6   14.768470    8.531370    0.054385      4.00      12.0107
      57     1 C    6   15.996958    9.247267    0.038493      4.00      12.0107
      58     1 C    6   17.222473    8.527031   -0.012382      4.00      12.0107
      59     1 C    6   18.450784    9.245206   -0.040835      4.00      12.0107
      60     1 C    6   19.679472    8.528135   -0.052136      4.00      12.0107
      61     1 C    6   20.907653    9.246890   -0.066638      4.00      12.0107
      62     1 C    6   22.136275    8.530323   -0.056897      4.00      12.0107
      63     1 C    6   23.362360    9.252382   -0.032176      4.00      12.0107
      64     1 C    6   22.136696    7.099345   -0.077894      4.00      12.0107
      65     1 C    6   20.908356    6.382367   -0.068502      4.00      12.0107
      66     1 C    6   19.679301    7.097946   -0.048614      4.00      12.0107
      67     1 C    6   18.450395    6.380676   -0.047874      4.00      12.0107
      68     1 C    6   17.221140    7.095821   -0.036679      4.00      12.0107
      69     1 C    6   15.991085    6.379279   -0.070431      4.00      12.0107
      70     1 C    6   14.766440    7.103342   -0.036998      4.00      12.0107
      71     1 C    6   13.536912    6.395502   -0.114889      4.00      12.0107
      72     1 C    6   12.311135    7.117448   -0.035025      4.00      12.0107
      73     1 C    6   11.079618    6.415431   -0.134658      4.00      12.0107
      74     1 C    6    9.853154    7.127020   -0.036614      4.00      12.0107
      75     1 C    6    8.626390    6.416003   -0.147654      4.00      12.0107
      76     1 C    6    7.395896    7.120433   -0.062684      4.00      12.0107
      77     1 C    6    6.171957    6.398927   -0.154973      4.00      12.0107
      78     1 C    6    4.942164    7.107891   -0.093404      4.00      12.0107
      79     1 C    6    4.941598    8.536963   -0.013960      4.00      12.0107
      80     1 C    6    3.718228    6.384645   -0.132056      4.00      12.0107
      81     1 C    6    3.722132    4.949069   -0.220088      4.00      12.0107
      82     1 C    6    4.954143    4.255714   -0.399654      4.00      12.0107
      83     1 C    6    6.178694    4.979589   -0.368451      4.00      12.0107
      84     1 C    6    7.410817    4.312374   -0.597591      4.00      12.0107
      85     1 C    6    8.630062    5.017845   -0.433998      4.00      12.0107
      86     1 C    6    9.853840    4.326611   -0.633899      4.00      12.0107
      87     1 C    6   11.076396    5.015582   -0.412277      4.00      12.0107
      88     1 C    6   12.297403    4.306570   -0.540346      4.00      12.0107
      89     1 C    6   13.531350    4.974642   -0.313667      4.00      12.0107
      90     1 C    6   14.754898    4.249307   -0.331274      4.00      12.0107
      91     1 C    6   15.988389    4.943273   -0.154082      4.00      12.0107
      92     1 C    6   17.218611    4.238197   -0.078122      4.00      12.0107
      93     1 C    6   18.451427    4.946927   -0.035302      4.00      12.0107
      94     1 C    6   19.682514    4.240286    0.020116      4.00      12.0107
      95     1 C    6   20.910815    4.948846   -0.057420      4.00      12.0107
      96     1 C    6   19.685385    2.774754    0.182606      4.00      12.0107
      97     1 C    6   18.439356    2.127846    0.219753      4.00      12.0107
      98     1 C    6   17.210538    2.759016   -0.044702      4.00      12.0107
      99     1 C    6   15.977326    2.176899   -0.314262      4.00      12.0107
     100     1 C    6   14.753485    2.772584   -0.550330      4.00      12.0107
     101     1 C    6   13.507367    2.253724   -0.956966      4.00      12.0107
     102     1 C    6   12.294063    2.918109   -0.985304      4.00      12.0107
     103     1 C    6   11.077936    2.299228   -1.461369      4.00      12.0107
     104     1 C    6    9.855848    2.987583   -1.183536      4.00      12.0107
     105     1 C    6    8.640293    2.310405   -1.525762      4.00      12.0107
     106     1 C    6    6.196999    2.270593   -1.046622      4.00      12.0107
     107     1 C    6    7.414027    2.928872   -1.069827      4.00      12.0107
     108     1 C    6    4.957579    2.778790   -0.614489      4.00      12.0107
     109     1 C    6    3.740512    2.182382   -0.340940      4.00      12.0107
     110     1 C    6    2.509600    2.763969   -0.064487      4.00      12.0107
     111     1 C    6    2.495476    4.241974   -0.122166      4.00      12.0107
     112     1 C    6    1.284375    2.131224    0.221681      4.00      12.0107
     113     2 Na  11    9.928193    0.685493   -2.823729      9.00      22.9898




 SCF PARAMETERS         Density guess:                                    ATOMIC
                        --------------------------------------------------------
                        max_scf:                                             400
                        max_scf_history:                                       0
                        max_diis:                                              4
                        --------------------------------------------------------
                        eps_scf:                                        3.00E-07
                        eps_scf_history:                                0.00E+00
                        eps_diis:                                       1.00E-01
                        eps_eigval:                                     1.00E-05
                        --------------------------------------------------------
                        level_shift [a.u.]:                                 0.00
                        added MOs                                       100  100
                        --------------------------------------------------------
                        Mixing method:                            BROYDEN_MIXING
                                                charge density mixing in g-space
                        --------------------------------------------------------
                        Smear method:                                FERMI_DIRAC
                        Electronic temperature [K]:                        300.0
                        Electronic temperature [a.u.]:                  9.50E-04
                        Accuracy threshold:                             1.00E-10
                        --------------------------------------------------------
                        Outer loop SCF in use 
                        No variables optimised in outer loop
                        eps_scf                                         1.00E-06
                        max_scf                                              100
                        DIIS optimization
                        DIIS buffer length                                     3
                        step_size                                       5.00E-01

 PW_GRID| Information for grid number                                          1
 PW_GRID| Grid distributed over                                    16 processors
 PW_GRID| Real space group dimensions                                    16    1
 PW_GRID| the grid is blocked:                                                NO
 PW_GRID| Cutoff [a.u.]                                                    150.0
 PW_GRID| spherical cutoff:                                                   NO
 PW_GRID|   Bounds   1           -108     107                Points:         216
 PW_GRID|   Bounds   2           -216     215                Points:         432
 PW_GRID|   Bounds   3           -108     107                Points:         216
 PW_GRID| Volume element (a.u.^3)  0.4558E-02     Volume (a.u.^3)     91861.9320
 PW_GRID| Grid span                                                    FULLSPACE
 PW_GRID|   Distribution                         Average         Max         Min
 PW_GRID|   G-Vectors                          1259712.0     1259712     1259712
 PW_GRID|   G-Rays                                5832.0        5832        5832
 PW_GRID|   Real Space Points                  1259712.0     1306368     1213056

 PW_GRID| Information for grid number                                          2
 PW_GRID| Grid distributed over                                    16 processors
 PW_GRID| Real space group dimensions                                    16    1
 PW_GRID| the grid is blocked:                                                NO
 PW_GRID| Cutoff [a.u.]                                                     50.0
 PW_GRID| spherical cutoff:                                                   NO
 PW_GRID|   Bounds   1            -60      59                Points:         120
 PW_GRID|   Bounds   2           -121     121                Points:         243
 PW_GRID|   Bounds   3            -62      62                Points:         125
 PW_GRID| Volume element (a.u.^3)  0.2520E-01     Volume (a.u.^3)     91861.9320
 PW_GRID| Grid span                                                    FULLSPACE
 PW_GRID|   Distribution                         Average         Max         Min
 PW_GRID|   G-Vectors                           227812.5      228960      226320
 PW_GRID|   G-Rays                                1898.4        1908        1886
 PW_GRID|   Real Space Points                   227812.5      243000      212625

 PW_GRID| Information for grid number                                          3
 PW_GRID| Grid distributed over                                    16 processors
 PW_GRID| Real space group dimensions                                    16    1
 PW_GRID| the grid is blocked:                                                NO
 PW_GRID| Cutoff [a.u.]                                                     16.7
 PW_GRID| spherical cutoff:                                                   NO
 PW_GRID|   Bounds   1            -36      35                Points:          72
 PW_GRID|   Bounds   2            -72      71                Points:         144
 PW_GRID|   Bounds   3            -36      35                Points:          72
 PW_GRID| Volume element (a.u.^3)  0.1231         Volume (a.u.^3)     91861.9320
 PW_GRID| Grid span                                                    FULLSPACE
 PW_GRID|   Distribution                         Average         Max         Min
 PW_GRID|   G-Vectors                            46656.0       46944       46512
 PW_GRID|   G-Rays                                 648.0         652         646
 PW_GRID|   Real Space Points                    46656.0       51840       41472

 PW_GRID| Information for grid number                                          4
 PW_GRID| Grid distributed over                                    16 processors
 PW_GRID| Real space group dimensions                                    16    1
 PW_GRID| the grid is blocked:                                                NO
 PW_GRID| Cutoff [a.u.]                                                      5.6
 PW_GRID| spherical cutoff:                                                   NO
 PW_GRID|   Bounds   1            -20      19                Points:          40
 PW_GRID|   Bounds   2            -40      40                Points:          81
 PW_GRID|   Bounds   3            -22      22                Points:          45
 PW_GRID| Volume element (a.u.^3)  0.6301         Volume (a.u.^3)     91861.9320
 PW_GRID| Grid span                                                    FULLSPACE
 PW_GRID|   Distribution                         Average         Max         Min
 PW_GRID|   G-Vectors                             9112.5        9240        9000
 PW_GRID|   G-Rays                                 227.8         231         225
 PW_GRID|   Real Space Points                     9112.5       10935        7290

 POISSON| Solver                                                        PERIODIC
 POISSON| Periodicity                                                        XYZ

 RS_GRID| Information for grid number                                          1
 RS_GRID|   Bounds   1           -108     107                Points:         216
 RS_GRID|   Bounds   2           -216     215                Points:         432
 RS_GRID|   Bounds   3           -108     107                Points:         216
 RS_GRID| Real space distribution over                                 16 groups
 RS_GRID| Real space distribution along direction                              2
 RS_GRID| Border size                                                         35
 RS_GRID|   Distribution                         Average         Max         Min
 RS_GRID|   Planes                                  97.0          97          97

 RS_GRID| Information for grid number                                          2
 RS_GRID|   Bounds   1            -60      59                Points:         120
 RS_GRID|   Bounds   2           -121     121                Points:         243
 RS_GRID|   Bounds   3            -62      62                Points:         125
 RS_GRID| Real space distribution over                                 16 groups
 RS_GRID| Real space distribution along direction                              2
 RS_GRID| Border size                                                         35
 RS_GRID|   Distribution                         Average         Max         Min
 RS_GRID|   Planes                                  85.2          86          85

 RS_GRID| Information for grid number                                          3
 RS_GRID|   Bounds   1            -36      35                Points:          72
 RS_GRID|   Bounds   2            -72      71                Points:         144
 RS_GRID|   Bounds   3            -36      35                Points:          72
 RS_GRID| Real space fully replicated
 RS_GRID| Group size                                                           1

 RS_GRID| Information for grid number                                          4
 RS_GRID|   Bounds   1            -20      19                Points:          40
 RS_GRID|   Bounds   2            -40      40                Points:          81
 RS_GRID|   Bounds   3            -22      22                Points:          45
 RS_GRID| Real space fully replicated
 RS_GRID| Group size                                                           1

 -------------------------------------------------------------------------------
 -                                                                             -
 -  BSSE CALCULATION         FRAGMENT CONF: 10        FRAGMENT SUBCONF: 10     -
 -                           CHARGE =     0           MULTIPLICITY =     0     -
 -                                                                             -
 -                 ATOM INDEX                              ATOM NAME           -
 -                 ----------                              ---------           -
 -                      1                                   C                  -
 -                      2                                   C                  -
 -                      3                                   C                  -
 -                      4                                   C                  -
 -                      5                                   C                  -
 -                      6                                   C                  -
 -                      7                                   C                  -
 -                      8                                   C                  -
 -                      9                                   C                  -
 -                     10                                   C                  -
 -                     11                                   C                  -
 -                     12                                   C                  -
 -                     13                                   C                  -
 -                     14                                   C                  -
 -                     15                                   C                  -
 -                     16                                   C                  -
 -                     17                                   C                  -
 -                     18                                   C                  -
 -                     19                                   C                  -
 -                     20                                   C                  -
 -                     21                                   C                  -
 -                     22                                   C                  -
 -                     23                                   C                  -
 -                     24                                   C                  -
 -                     25                                   C                  -
 -                     26                                   C                  -
 -                     27                                   C                  -
 -                     28                                   C                  -
 -                     29                                   C                  -
 -                     30                                   C                  -
 -                     31                                   C                  -
 -                     32                                   C                  -
 -                     33                                   C                  -
 -                     34                                   C                  -
 -                     35                                   C                  -
 -                     36                                   C                  -
 -                     37                                   C                  -
 -                     38                                   C                  -
 -                     39                                   C                  -
 -                     40                                   C                  -
 -                     41                                   C                  -
 -                     42                                   C                  -
 -                     43                                   C                  -
 -                     44                                   C                  -
 -                     45                                   C                  -
 -                     46                                   C                  -
 -                     47                                   C                  -
 -                     48                                   C                  -
 -                     49                                   C                  -
 -                     50                                   C                  -
 -                     51                                   C                  -
 -                     52                                   C                  -
 -                     53                                   C                  -
 -                     54                                   C                  -
 -                     55                                   C                  -
 -                     56                                   C                  -
 -                     57                                   C                  -
 -                     58                                   C                  -
 -                     59                                   C                  -
 -                     60                                   C                  -
 -                     61                                   C                  -
 -                     62                                   C                  -
 -                     63                                   C                  -
 -                     64                                   C                  -
 -                     65                                   C                  -
 -                     66                                   C                  -
 -                     67                                   C                  -
 -                     68                                   C                  -
 -                     69                                   C                  -
 -                     70                                   C                  -
 -                     71                                   C                  -
 -                     72                                   C                  -
 -                     73                                   C                  -
 -                     74                                   C                  -
 -                     75                                   C                  -
 -                     76                                   C                  -
 -                     77                                   C                  -
 -                     78                                   C                  -
 -                     79                                   C                  -
 -                     80                                   C                  -
 -                     81                                   C                  -
 -                     82                                   C                  -
 -                     83                                   C                  -
 -                     84                                   C                  -
 -                     85                                   C                  -
 -                     86                                   C                  -
 -                     87                                   C                  -
 -                     88                                   C                  -
 -                     89                                   C                  -
 -                     90                                   C                  -
 -                     91                                   C                  -
 -                     92                                   C                  -
 -                     93                                   C                  -
 -                     94                                   C                  -
 -                     95                                   C                  -
 -                     96                                   C                  -
 -                     97                                   C                  -
 -                     98                                   C                  -
 -                     99                                   C                  -
 -                    100                                   C                  -
 -                    101                                   C                  -
 -                    102                                   C                  -
 -                    103                                   C                  -
 -                    104                                   C                  -
 -                    105                                   C                  -
 -                    106                                   C                  -
 -                    107                                   C                  -
 -                    108                                   C                  -
 -                    109                                   C                  -
 -                    110                                   C                  -
 -                    111                                   C                  -
 -                    112                                   C                  -
 -------------------------------------------------------------------------------

 CELL| Volume [angstrom^3]:                                            13612.534
 CELL| Vector a [angstrom]:      19.648     0.000     0.000    |a| =      19.648
 CELL| Vector b [angstrom]:      20.000    34.641     0.000    |b| =      40.000
 CELL| Vector c [angstrom]:       0.000     0.000    20.000    |c| =      20.000
 CELL| Angle (b,c), alpha [degree]:                                       90.000
 CELL| Angle (a,c), beta  [degree]:                                       90.000
 CELL| Angle (a,b), gamma [degree]:                                       60.000
 CELL| Requested initial symmetry:                                     TRICLINIC
 CELL| Numerically orthorhombic:                                              NO

 CELL_REF| Volume [angstrom^3]:                                        13612.534
 CELL_REF| Vector a [angstrom    19.648     0.000     0.000    |a| =      19.648
 CELL_REF| Vector b [angstrom    20.000    34.641     0.000    |b| =      40.000
 CELL_REF| Vector c [angstrom     0.000     0.000    20.000    |c| =      20.000
 CELL_REF| Angle (b,c), alpha [degree]:                                   90.000
 CELL_REF| Angle (a,c), beta  [degree]:                                   90.000
 CELL_REF| Angle (a,b), gamma [degree]:                                   60.000
 CELL_REF| Requested initial symmetry:                                 TRICLINIC
 CELL_REF| Numerically orthorhombic:                                          NO

 *******************************************************************************
 *******************************************************************************
 **                                                                           **
 **     #####                         ##              ##                      **
 **    ##   ##            ##          ##              ##                      **
 **   ##     ##                       ##            ######                    **
 **   ##     ##  ##   ##  ##   #####  ##  ##   ####   ##    #####    #####    **
 **   ##     ##  ##   ##  ##  ##      ## ##   ##      ##   ##   ##  ##   ##   **
 **   ##  ## ##  ##   ##  ##  ##      ####     ###    ##   ######   ######    **
 **    ##  ###   ##   ##  ##  ##      ## ##      ##   ##   ##       ##        **
 **     #######   #####   ##   #####  ##  ##  ####    ##    #####   ##        **
 **           ##                                                    ##        **
 **                                                                           **
 **                                                ... make the atoms dance   **
 **                                                                           **
 **            Copyright (C) by CP2K developers group (2000 - 2018)           **
 **                                                                           **
 *******************************************************************************

 DFT| Spin unrestricted (spin-polarized) Kohn-Sham calculation               UKS
 DFT| Multiplicity                                                             1
 DFT| Number of spin states                                                    2
 DFT| Charge                                                                   0
 DFT| Self-interaction correction (SIC)                                       NO
 DFT| Cutoffs: density                                              1.000000E-10
 DFT|          gradient                                             1.000000E-10
 DFT|          tau                                                  1.000000E-10
 DFT|          cutoff_smoothing_range                               0.000000E+00
 DFT| XC density smoothing                                                  NONE
 DFT| XC derivatives                                              SPLINE2_SMOOTH
 FUNCTIONAL| ROUTINE=NEW
 FUNCTIONAL| BECKE88:
 FUNCTIONAL| A. Becke, Phys. Rev. A 38, 3098 (1988) {LSD version}               
 FUNCTIONAL| LYP:
 FUNCTIONAL| C. Lee, W. Yang, R.G. Parr, Phys. Rev. B, 37, 785 (1988) {LSD versi
 FUNCTIONAL| on}                                                                
 vdW POTENTIAL|                                                   Pair Potential
 vdW POTENTIAL|          DFT-D3 (Version 3.1)
 vdW POTENTIAL|          Potential Form: S. Grimme et al, JCP 132: 154104 (2010)
 vdW POTENTIAL|          Zero Damping
 vdW POTENTIAL|          Cutoff Radius [Bohr]:                             20.00
 vdW POTENTIAL|          s6 Scaling Factor:                               1.0000
 vdW POTENTIAL|          sr6 Scaling Factor:                              1.0940
 vdW POTENTIAL|          s8 Scaling Factor:                               1.6820
 vdW POTENTIAL|          Cutoff for CN calculation:                   0.1000E-05

 QS| Method:                                                                 GPW
 QS| Density plane wave grid type                        NON-SPHERICAL FULLSPACE
 QS| Number of grid levels:                                                    4
 QS| Density cutoff [a.u.]:                                                150.0
 QS| Multi grid cutoff [a.u.]: 1) grid level                               150.0
 QS|                           2) grid level                                50.0
 QS|                           3) grid level                                16.7
 QS|                           4) grid level                                 5.6
 QS| Grid level progression factor:                                          3.0
 QS| Relative density cutoff [a.u.]:                                        20.0
 QS| Consistent realspace mapping and integration 
 QS| Interaction thresholds: eps_pgf_orb:                                1.0E-06
 QS|                         eps_filter_matrix:                          0.0E+00
 QS|                         eps_core_charge:                            1.0E-14
 QS|                         eps_rho_gspace:                             1.0E-12
 QS|                         eps_rho_rspace:                             1.0E-12
 QS|                         eps_gvg_rspace:                             1.0E-06
 QS|                         eps_ppl:                                    1.0E-02
 QS|                         eps_ppnl:                                   1.0E-08


 ATOMIC KIND INFORMATION

  1. Atomic kind: C                                     Number of atoms:     112

     Orbital Basis Set                                        DZVP-MOLOPT-SR-GTH

       Number of orbital shell sets:                                           1
       Number of orbital shells:                                               5
       Number of primitive Cartesian functions:                                5
       Number of Cartesian basis functions:                                   14
       Number of spherical basis functions:                                   13
       Norm type:                                                              2

       Normalised Cartesian orbitals:

                        Set   Shell   Orbital            Exponent    Coefficient

                          1       1    2s                5.605331       0.322515
                                                         2.113016       0.213043
                                                         0.769911      -0.209686
                                                         0.348157      -0.219794
                                                         0.128212      -0.022789

                          1       2    3s                5.605331       0.552234
                                                         2.113016       0.082072
                                                         0.769911       0.007843
                                                         0.348157       0.136893
                                                         0.128212       0.074283

                          1       3    3px               5.605331      -0.703879
                                                         2.113016      -0.642521
                                                         0.769911      -0.374851
                                                         0.348157      -0.139743
                                                         0.128212      -0.027849
                          1       3    3py               5.605331      -0.703879
                                                         2.113016      -0.642521
                                                         0.769911      -0.374851
                                                         0.348157      -0.139743
                                                         0.128212      -0.027849
                          1       3    3pz               5.605331      -0.703879
                                                         2.113016      -0.642521
                                                         0.769911      -0.374851
                                                         0.348157      -0.139743
                                                         0.128212      -0.027849

                          1       4    4px               5.605331      -0.480376
                                                         2.113016      -0.552894
                                                         0.769911      -0.316145
                                                         0.348157       0.210505
                                                         0.128212       0.076095
                          1       4    4py               5.605331      -0.480376
                                                         2.113016      -0.552894
                                                         0.769911      -0.316145
                                                         0.348157       0.210505
                                                         0.128212       0.076095
                          1       4    4pz               5.605331      -0.480376
                                                         2.113016      -0.552894
                                                         0.769911      -0.316145
                                                         0.348157       0.210505
                                                         0.128212       0.076095

                          1       5    4dx2              5.605331       0.640026
                                                         2.113016       0.274300
                                                         0.769911       0.446711
                                                         0.348157       0.028674
                                                         0.128212       0.029790
                          1       5    4dxy              5.605331       1.108557
                                                         2.113016       0.475102
                                                         0.769911       0.773726
                                                         0.348157       0.049666
                                                         0.128212       0.051599
                          1       5    4dxz              5.605331       1.108557
                                                         2.113016       0.475102
                                                         0.769911       0.773726
                                                         0.348157       0.049666
                                                         0.128212       0.051599
                          1       5    4dy2              5.605331       0.640026
                                                         2.113016       0.274300
                                                         0.769911       0.446711
                                                         0.348157       0.028674
                                                         0.128212       0.029790
                          1       5    4dyz              5.605331       1.108557
                                                         2.113016       0.475102
                                                         0.769911       0.773726
                                                         0.348157       0.049666
                                                         0.128212       0.051599
                          1       5    4dz2              5.605331       0.640026
                                                         2.113016       0.274300
                                                         0.769911       0.446711
                                                         0.348157       0.028674
                                                         0.128212       0.029790

     GTH Potential information for                                    GTH-PBE-q4

       Description:                       Goedecker-Teter-Hutter pseudopotential
                                           Goedecker et al., PRB 54, 1703 (1996)
                                          Hartwigsen et al., PRB 58, 3641 (1998)
                                                      Krack, TCA 114, 145 (2005)

       Gaussian exponent of the core charge distribution:               4.364419
       Electronic configuration (s p d ...):                               2   2

       Parameters of the local part of the GTH pseudopotential:

                          rloc        C1          C2          C3          C4
                        0.338471   -8.803674    1.339211

       Parameters of the non-local part of the GTH pseudopotential:

                   l      r(l)      h(i,j,l)

                   0    0.302576    9.622487
                   1    0.291507


 MOLECULE KIND INFORMATION


 All atoms are their own molecule, skipping detailed information


 TOTAL NUMBERS AND MAXIMUM NUMBERS

  Total number of            - Atomic kinds:                                   1
                             - Atoms:                                        112
                             - Shell sets:                                   112
                             - Shells:                                       560
                             - Primitive Cartesian functions:                560
                             - Cartesian basis functions:                   1568
                             - Spherical basis functions:                   1456

  Maximum angular momentum of- Orbital basis functions:                        2
                             - Local part of the GTH pseudopotential:          2
                             - Non-local part of the GTH pseudopotential:      0


 MODULE QUICKSTEP:  ATOMIC COORDINATES IN angstrom

  Atom  Kind  Element       X           Y           Z          Z(eff)       Mass

       1     1 C    6    8.616720   15.012843    0.575573      4.00      12.0107
       2     1 C    6    9.850117   15.599867    0.880908      4.00      12.0107
       3     1 C    6   11.096397   14.977768    0.803852      4.00      12.0107
       4     1 C    6   12.349403   15.598622    0.887287      4.00      12.0107
       5     1 C    6   13.569802   14.996315    0.555649      4.00      12.0107
       6     1 C    6   14.791148   15.625797    0.326160      4.00      12.0107
       7     1 C    6   15.993726   15.020798   -0.033842      4.00      12.0107
       8     1 C    6   17.196409   15.611177   -0.423012      4.00      12.0107
       9     1 C    6   18.427561   14.979333   -0.576700      4.00      12.0107
      10     1 C    6   19.657841   15.572916   -0.890782      4.00      12.0107
      11     1 C    6   20.907442   14.963432   -0.731480      4.00      12.0107
      12     1 C    6   22.157499   15.583786   -0.780748      4.00      12.0107
      13     1 C    6   23.381070   15.005203   -0.432367      4.00      12.0107
      14     1 C    6   24.610297   15.637592   -0.250333      4.00      12.0107
      15     1 C    6   25.821919   15.026499    0.072205      4.00      12.0107
      16     1 C    6   27.038218   15.639947    0.372181      4.00      12.0107
      17     1 C    6   25.819153   13.545742    0.101654      4.00      12.0107
      18     1 C    6   23.369534   13.537023   -0.230049      4.00      12.0107
      19     1 C    6   20.907001   13.517472   -0.418110      4.00      12.0107
      20     1 C    6   18.442784   13.521851   -0.325816      4.00      12.0107
      21     1 C    6   15.996774   13.538130    0.013186      4.00      12.0107
      22     1 C    6   14.775119   12.830309    0.185398      4.00      12.0107
      23     1 C    6   13.554111   13.528151    0.384709      4.00      12.0107
      24     1 C    6   12.320511   12.822170    0.414768      4.00      12.0107
      25     1 C    6   11.090520   13.522621    0.540872      4.00      12.0107
      26     1 C    6    9.856289   12.827920    0.427624      4.00      12.0107
      27     1 C    6    8.623556   13.539649    0.415273      4.00      12.0107
      28     1 C    6    7.396306   12.839271    0.246700      4.00      12.0107
      29     1 C    6   24.592051   12.838908   -0.030325      4.00      12.0107
      30     1 C    6   22.137492   12.826836   -0.251450      4.00      12.0107
      31     1 C    6   19.676454   12.817420   -0.299000      4.00      12.0107
      32     1 C    6   17.220844   12.827380   -0.118758      4.00      12.0107
      33     1 C    6   24.589548   11.403518    0.024296      4.00      12.0107
      34     1 C    6   23.363509   10.683498   -0.042257      4.00      12.0107
      35     1 C    6   22.135792   11.396273   -0.127922      4.00      12.0107
      36     1 C    6   20.908163   10.676731   -0.117535      4.00      12.0107
      37     1 C    6   19.679023   11.390170   -0.151165      4.00      12.0107
      38     1 C    6   18.451148   10.675297   -0.076418      4.00      12.0107
      39     1 C    6   17.224076   11.393127   -0.041538      4.00      12.0107
      40     1 C    6   15.998309   10.677654    0.052110      4.00      12.0107
      41     1 C    6   14.773279   11.394999    0.149090      4.00      12.0107
      42     1 C    6   13.545771   10.678478    0.211254      4.00      12.0107
      43     1 C    6   12.317674   11.392964    0.305460      4.00      12.0107
      44     1 C    6   11.086025   10.680405    0.287073      4.00      12.0107
      45     1 C    6    9.855967   11.397008    0.318929      4.00      12.0107
      46     1 C    6    8.624725   10.685266    0.240816      4.00      12.0107
      47     1 C    6    7.396465   11.403403    0.208189      4.00      12.0107
      48     1 C    6    6.168843   10.688093    0.111547      4.00      12.0107
      49     1 C    6    6.167014    9.258234    0.063415      4.00      12.0107
      50     1 C    6    7.394967    8.542958    0.067605      4.00      12.0107
      51     1 C    6    8.623176    9.259091    0.154740      4.00      12.0107
      52     1 C    6    9.853512    8.543682    0.123135      4.00      12.0107
      53     1 C    6   11.084644    9.254977    0.186837      4.00      12.0107
      54     1 C    6   12.313028    8.537359    0.114866      4.00      12.0107
      55     1 C    6   13.543609    9.250648    0.135595      4.00      12.0107
      56     1 C    6   14.768470    8.531370    0.054385      4.00      12.0107
      57     1 C    6   15.996958    9.247267    0.038493      4.00      12.0107
      58     1 C    6   17.222473    8.527031   -0.012382      4.00      12.0107
      59     1 C    6   18.450784    9.245206   -0.040835      4.00      12.0107
      60     1 C    6   19.679472    8.528135   -0.052136      4.00      12.0107
      61     1 C    6   20.907653    9.246890   -0.066638      4.00      12.0107
      62     1 C    6   22.136275    8.530323   -0.056897      4.00      12.0107
      63     1 C    6   23.362360    9.252382   -0.032176      4.00      12.0107
      64     1 C    6   22.136696    7.099345   -0.077894      4.00      12.0107
      65     1 C    6   20.908356    6.382367   -0.068502      4.00      12.0107
      66     1 C    6   19.679301    7.097946   -0.048614      4.00      12.0107
      67     1 C    6   18.450395    6.380676   -0.047874      4.00      12.0107
      68     1 C    6   17.221140    7.095821   -0.036679      4.00      12.0107
      69     1 C    6   15.991085    6.379279   -0.070431      4.00      12.0107
      70     1 C    6   14.766440    7.103342   -0.036998      4.00      12.0107
      71     1 C    6   13.536912    6.395502   -0.114889      4.00      12.0107
      72     1 C    6   12.311135    7.117448   -0.035025      4.00      12.0107
      73     1 C    6   11.079618    6.415431   -0.134658      4.00      12.0107
      74     1 C    6    9.853154    7.127020   -0.036614      4.00      12.0107
      75     1 C    6    8.626390    6.416003   -0.147654      4.00      12.0107
      76     1 C    6    7.395896    7.120433   -0.062684      4.00      12.0107
      77     1 C    6    6.171957    6.398927   -0.154973      4.00      12.0107
      78     1 C    6    4.942164    7.107891   -0.093404      4.00      12.0107
      79     1 C    6    4.941598    8.536963   -0.013960      4.00      12.0107
      80     1 C    6    3.718228    6.384645   -0.132056      4.00      12.0107
      81     1 C    6    3.722132    4.949069   -0.220088      4.00      12.0107
      82     1 C    6    4.954143    4.255714   -0.399654      4.00      12.0107
      83     1 C    6    6.178694    4.979589   -0.368451      4.00      12.0107
      84     1 C    6    7.410817    4.312374   -0.597591      4.00      12.0107
      85     1 C    6    8.630062    5.017845   -0.433998      4.00      12.0107
      86     1 C    6    9.853840    4.326611   -0.633899      4.00      12.0107
      87     1 C    6   11.076396    5.015582   -0.412277      4.00      12.0107
[...]
     75       C      1       4.000    1.996   1.996            0.000      0.008
     76       C      1       4.000    2.001   1.999            0.002     -0.000
     77       C      1       4.000    1.996   1.995            0.001      0.009
     78       C      1       4.000    2.000   1.999            0.001      0.001
     79       C      1       4.000    1.999   1.999           -0.000      0.002
     80       C      1       4.000    1.997   1.995            0.002      0.008
     81       C      1       4.000    2.002   2.001            0.001     -0.003
     82       C      1       4.000    1.990   1.989            0.000      0.021
     83       C      1       4.000    2.002   2.002            0.000     -0.003
     84       C      1       4.000    1.993   1.990            0.003      0.017
     85       C      1       4.000    2.001   2.000            0.000     -0.001
     86       C      1       4.000    1.991   1.987            0.003      0.022
     87       C      1       4.000    2.001   2.000            0.001     -0.002
     88       C      1       4.000    1.992   1.990            0.002      0.018
     89       C      1       4.000    2.002   2.001            0.001     -0.004
     90       C      1       4.000    1.990   1.989            0.000      0.021
     91       C      1       4.000    2.001   2.001            0.000     -0.003
     92       C      1       4.000    1.992   1.989            0.003      0.019
     93       C      1       4.000    2.001   2.001            0.000     -0.002
     94       C      1       4.000    1.993   1.989            0.003      0.018
     95       C      1       4.000    2.001   2.001            0.001     -0.002
     96       C      1       4.000    1.995   1.995           -0.000      0.010
     97       C      1       4.000    2.034   2.032            0.001     -0.066
     98       C      1       4.000    1.992   1.992            0.000      0.016
     99       C      1       4.000    2.019   2.020           -0.001     -0.038
    100       C      1       4.000    1.990   1.990            0.000      0.019
    101       C      1       4.000    2.018   2.016            0.002     -0.034
    102       C      1       4.000    1.990   1.990           -0.000      0.019
    103       C      1       4.000    1.862   1.858            0.004      0.280
    104       C      1       4.000    1.956   1.956            0.000      0.087
    105       C      1       4.000    1.869   1.867            0.002      0.264
    106       C      1       4.000    2.019   2.017            0.002     -0.036
    107       C      1       4.000    1.992   1.991            0.001      0.017
    108       C      1       4.000    1.990   1.990           -0.000      0.020
    109       C      1       4.000    2.020   2.019            0.001     -0.040
    110       C      1       4.000    1.991   1.992           -0.001      0.016
    111       C      1       4.000    1.991   1.989            0.001      0.020
    112       C      1       4.000    2.035   2.032            0.003     -0.067
    113       Na     2       9.000    4.817   4.816            0.001     -0.633

  Total Charge                                                            0.020
 !-----------------------------------------------------------------------------!

 *** WARNING in qs_loc_utils.F:1387 :: User requested the calculation of ***
 *** the localized wavefunction but the section LOCALIZE was not         ***
 *** specified. Localization will not be performed!                      ***


 -------------------------------------------------------------------------------
 ----                             MULTIGRID INFO                            ----
 -------------------------------------------------------------------------------
 count for grid        1:         161525          cutoff [a.u.]          150.00
 count for grid        2:          72661          cutoff [a.u.]           50.00
 count for grid        3:          38466          cutoff [a.u.]           16.67
 count for grid        4:          13811          cutoff [a.u.]            5.56
 total gridlevel count  :         286463

 -------------------------------------------------------------------------------
 -                                                                             -
 -                                 BSSE RESULTS                                -
 -                                                                             -
 -                 CP-corrected Total energy:     -679.886544                  -
 -                                                                             -
 -                       1-body contribution:     -632.601455                  -
 -                       1-body contribution:      -47.158977                  -
 -                                                                             -
 -                       2-body contribution:       -0.126112                  -
 -                 BSSE-free interaction energy:       -0.126112               -
 -------------------------------------------------------------------------------

 -------------------------------------------------------------------------------
 -                                                                             -
 -                                DBCSR STATISTICS                             -
 -                                                                             -
 -------------------------------------------------------------------------------
 COUNTER                                    TOTAL       BLAS       SMM       ACC
 flops     9 x     9 x     8               108864       0.0%    100.0%      0.0%
 flops     9 x     9 x     9               309096       0.0%    100.0%      0.0%
 flops     9 x     9 x    68              2048976       0.0%    100.0%      0.0%
 flops     9 x     9 x    32              2612736       0.0%    100.0%      0.0%
 flops    13 x     9 x     8              7076160       0.0%    100.0%      0.0%
 flops     9 x    13 x     8              7390656       0.0%    100.0%      0.0%
 flops    13 x     9 x     9              7960680       0.0%    100.0%      0.0%
 flops     9 x    13 x     9              8314488       0.0%    100.0%      0.0%
 flops     9 x     9 x    72             98852400       0.0%    100.0%      0.0%
 flops     9 x     9 x    73            100225350       0.0%    100.0%      0.0%
 flops    13 x     9 x    68            133183440       0.0%    100.0%      0.0%
 flops     9 x    13 x    68            139102704       0.0%    100.0%      0.0%
 flops    13 x     9 x    32            169827840       0.0%    100.0%      0.0%
 flops     9 x    13 x    32            177375744       0.0%    100.0%      0.0%
 flops     9 x     9 x    64            177666048       0.0%    100.0%      0.0%
 flops     9 x     9 x    96            532998144       0.0%    100.0%      0.0%
 flops    13 x    13 x     8           1291949568       0.0%    100.0%      0.0%
 flops    13 x    13 x     9           1453443264       0.0%    100.0%      0.0%
 flops    13 x     9 x    72           6425406000       0.0%    100.0%      0.0%
 flops    13 x     9 x    73           6514647750       0.0%    100.0%      0.0%
 flops     9 x    13 x    72           6710979600       0.0%    100.0%      0.0%
 flops     9 x    13 x    73           6804187650       0.0%    100.0%      0.0%
 flops    13 x     9 x    64          11548293120       0.0%    100.0%      0.0%
 flops     9 x    13 x    64          12061550592       0.0%    100.0%      0.0%
 flops    13 x    13 x    32          31006789632       0.0%    100.0%      0.0%
 flops    13 x     9 x    96          34644879360       0.0%    100.0%      0.0%
 flops     9 x    13 x    96          36184651776       0.0%    100.0%      0.0%
 flops    13 x    13 x    68          61967438208       0.0%    100.0%      0.0%
 flops    13 x    13 x    72        1173136348800       0.0%    100.0%      0.0%
 flops    13 x    13 x    73        1189429909200       0.0%    100.0%      0.0%
 flops    13 x    13 x    64        2143898025984       0.0%    100.0%      0.0%
 flops    13 x    13 x    96        6431694077952       0.0%    100.0%      0.0%
 flops inhomo. stacks                           0       0.0%      0.0%      0.0%
 flops total                        11.156338E+12       0.0%    100.0%      0.0%
 flops max/rank                    733.527254E+09       0.0%    100.0%      0.0%
 matmuls inhomo. stacks                         0       0.0%      0.0%      0.0%
 matmuls total                          406690400       0.0%    100.0%      0.0%
 number of processed stacks               1679744       0.0%    100.0%      0.0%
 average stack size                                     0.0     242.1       0.0
 marketing flops                    17.790495E+12
 -------------------------------------------------------------------------------
 # multiplications                          17720
 max memory usage/rank               1.761477E+09
 # max total images/rank                        1
 # max 3D layers                                1
 # MPI messages exchanged                 1701120
 MPI messages size (bytes):
  total size                       403.573408E+09
  min size                           0.000000E+00
  max size                         286.464000E+03
  average size                     237.239828E+03
 MPI breakdown and total messages size (bytes):
             size <=      128               11520                        0
       128 < size <=     8192                 768                   497664
      8192 < size <=    32768                4032                100416960
     32768 < size <=   131072               12096               1134120960
    131072 < size <=  4194304             1672704             402306187536
   4194304 < size <= 16777216                   0                        0
  16777216 < size                               0                        0
 -------------------------------------------------------------------------------

 MEMORY| Estimated peak process memory [MiB]                                1680

 -------------------------------------------------------------------------------
 ----                             MULTIGRID INFO                            ----
 -------------------------------------------------------------------------------
 count for grid        1:         148480          cutoff [a.u.]          150.00
 count for grid        2:          51840          cutoff [a.u.]           50.00
 count for grid        3:          26560          cutoff [a.u.]           16.67
 count for grid        4:           7360          cutoff [a.u.]            5.56
 total gridlevel count  :         234240

 -------------------------------------------------------------------------------
 -                                                                             -
 -                         MESSAGE PASSING PERFORMANCE                         -
 -                                                                             -
 -------------------------------------------------------------------------------

 ROUTINE             CALLS      AVE VOLUME [Bytes]
 MP_Group            17754
 MP_Bcast             9174                 104758.
 MP_Allreduce       275255                     80.
 MP_Sync               152
 MP_Alltoall        717808               10364202.
 MP_SendRecv        212640                 746496.
 MP_ISendRecv      1063500                 251100.
 MP_Wait           3651570
 MP_comm_split         128
 MP_ISend          1772820                 947099.
 MP_IRecv          1772820                 945257.
 MP_Recv              8786                 374095.
 MP_Memory         1380544
 -------------------------------------------------------------------------------


 -------------------------------------------------------------------------------
 -                                                                             -
 -                           R E F E R E N C E S                               -
 -                                                                             -
 -------------------------------------------------------------------------------
 
 CP2K version 7.0 (Development Version), the CP2K developers group (2018).
 CP2K is freely available from https://www.cp2k.org/ .

 Schuett, Ole; Messmer, Peter; Hutter, Juerg; VandeVondele, Joost. 
 Electronic Structure Calculations on Graphics Processing Units, John Wiley & Sons, Ltd, 173-190 (2016). 
 GPU-Accelerated Sparse Matrix-Matrix Multiplication for Linear Scaling Density Functional Theory.
 http://dx.doi.org/10.1002/9781118670712.ch8


 Borstnik, U; VandeVondele, J; Weber, V; Hutter, J. 
 PARALLEL COMPUTING, 40 (5-6), 47-58 (2014). 
 Sparse matrix multiplication: The distributed block-compressed sparse
 row library.
 http://dx.doi.org/10.1016/j.parco.2014.03.012


 Hutter, J; Iannuzzi, M; Schiffmann, F; VandeVondele, J. 
 WILEY INTERDISCIPLINARY REVIEWS-COMPUTATIONAL MOLECULAR SCIENCE, 4 (1), 15-25 (2014). 
 CP2K: atomistic simulations of condensed matter systems.
 http://dx.doi.org/10.1002/wcms.1159


 Grimme, S; Ehrlich, S; Goerigk, L. 
 JOURNAL OF COMPUTATIONAL CHEMISTRY, 32, 1456 (2011). 
 Effect of the damping function in dispersion corrected density functional theory.
 http://dx.doi.org/10.1002/jcc.21759


 Grimme, S; Antony, J; Ehrlich, S; Krieg, H. 
 JOURNAL OF CHEMICAL PHYSICS, 132 (15), 154104 (2010). 
 A consistent and accurate ab initio parametrization of density
 functional dispersion correction (DFT-D) for the 94 elements H-Pu.
 http://dx.doi.org/10.1063/1.3382344


 VandeVondele, J; Hutter, J. 
 JOURNAL OF CHEMICAL PHYSICS, 127 (11), 114105 (2007). 
 Gaussian basis sets for accurate calculations on molecular systems in
 gas and condensed phases.
 http://dx.doi.org/10.1063/1.2770708


 Krack, M. 
 THEORETICAL CHEMISTRY ACCOUNTS, 114 (1-3), 145-152 (2005). 
 Pseudopotentials for H to Kr optimized for gradient-corrected
 exchange-correlation functionals.
 http://dx.doi.org/10.1007/s00214-005-0655-y


 VandeVondele, J; Krack, M; Mohamed, F; Parrinello, M; Chassaing, T;
 Hutter, J. COMPUTER PHYSICS COMMUNICATIONS, 167 (2), 103-128 (2005). 
 QUICKSTEP: Fast and accurate density functional calculations using a
 mixed Gaussian and plane waves approach.
 http://dx.doi.org/10.1016/j.cpc.2004.12.014


 Frigo, M; Johnson, SG. 
 PROCEEDINGS OF THE IEEE, 93 (2), 216-231 (2005). 
 The design and implementation of FFTW3.
 http://dx.doi.org/10.1109/JPROC.2004.840301


 Hartwigsen, C; Goedecker, S; Hutter, J. 
 PHYSICAL REVIEW B, 58 (7), 3641-3662 (1998). 
 Relativistic separable dual-space Gaussian pseudopotentials from H to Rn.
 http://dx.doi.org/10.1103/PhysRevB.58.3641


 Lippert, G; Hutter, J; Parrinello, M. 
 MOLECULAR PHYSICS, 92 (3), 477-487 (1997). 
 A hybrid Gaussian and plane wave density functional scheme.
 http://dx.doi.org/10.1080/002689797170220


 Goedecker, S; Teter, M; Hutter, J. 
 PHYSICAL REVIEW B, 54 (3), 1703-1710 (1996). 
 Separable dual-space Gaussian pseudopotentials.
 http://dx.doi.org/10.1103/PhysRevB.54.1703


 BECKE, AD. PHYSICAL REVIEW A, 38 (6), 3098-3100 (1988). 
 DENSITY-FUNCTIONAL EXCHANGE-ENERGY APPROXIMATION WITH CORRECT
 ASYMPTOTIC-BEHAVIOR.
 http://dx.doi.org/10.1103/PhysRevA.38.3098


 LEE, CT; YANG, WT; PARR, RG. 
 PHYSICAL REVIEW B, 37 (2), 785-789 (1988). 
 DEVELOPMENT OF THE COLLE-SALVETTI CORRELATION-ENERGY FORMULA INTO A
 FUNCTIONAL OF THE ELECTRON-DENSITY.
 http://dx.doi.org/10.1103/PhysRevB.37.785


 -------------------------------------------------------------------------------
 -                                                                             -
 -                                T I M I N G                                  -
 -                                                                             -
 -------------------------------------------------------------------------------
 SUBROUTINE                       CALLS  ASD         SELF TIME        TOTAL TIME
                                MAXIMUM       AVERAGE  MAXIMUM  AVERAGE  MAXIMUM
 CP2K                                 1  1.0     0.11     0.33 60922.28 60922.31
 qs_energies                          5  2.0     0.00     0.00 60918.22 60918.25
 scf_env_do_scf                       5  3.0     0.01     0.02 60905.78 60906.20
 scf_env_do_scf_inner_loop         8860  4.0     0.47     1.79 60905.74 60906.16
 qs_ks_update_qs_env               8860  5.0     0.09     0.11 25545.82 25546.50
 rebuild_ks_matrix                 8860  6.0     0.02     0.03 25536.83 25537.29
 qs_ks_build_kohn_sham_matrix      8860  7.0     1.02     1.10 25536.80 25537.26
 qs_rho_update_rho                 8865  5.0     0.07     0.11 18077.48 18082.32
 calculate_rho_elec               17730  6.0  7671.01  8872.11 18077.41 18082.21
 sum_up_and_integrate              8860  8.0    89.55    93.95 15280.40 15280.96
 integrate_v_rspace               17720  9.0  7399.84  8496.74 15190.81 15194.84
 pw_transfer                     203783  9.0    14.39    16.67 14924.92 15097.71
 fft_wrap_pw1pw2                 186063 10.0     1.71     1.99 14730.58 14899.90
 fft_wrap_pw1pw2_150              79713 10.2  1199.98  1234.09 13425.51 13606.30
 gspace_mixing                     8834  5.0    93.71    97.58 12781.13 12781.13
 density_rs2pw                    17730  7.0     0.86     0.93  9885.60 11273.42
 fft3d_ps                        186063 12.0  6537.30  6732.18 10506.64 10656.88
 broyden_mixing                    8834  6.0  8730.28  8854.28  8959.17  8977.35
 qs_vxc_create                     8860  8.0     0.19     0.19  7898.36  7935.70
 xc_vxc_pw_create                  8860  9.0   664.26   727.34  7898.17  7935.51
 rs_pw_transfer                  141820  9.5     1.95     2.18  5716.69  7124.48
 potential_pw2rs                  17720 10.0     9.19    10.78  6634.49  6639.01
 xc_rho_set_and_dset_create        8860 10.0   713.31   748.33  5257.18  5434.60
 qs_scf_new_mos                    8860  5.0     0.17     0.18  4460.44  4463.00
 eigensolver                      17720  6.0     1.22     1.64  4212.37  4213.29
 rs_pw_transfer_RS2PW_150         17740  9.0   753.64   826.90  2264.70  3626.25
 mp_waitany                     1489300 11.5  2087.09  3608.39  2087.09  3608.39
 cp_fm_syevd                      17720  7.0     0.11     0.14  3356.47  3357.53
 cp_fm_syevd_base                 17720  8.0  3356.24  3357.29  3356.24  3357.29
 pw_nn_compose_r                 106320 10.5  2496.04  2570.62  2940.18  3248.80
 xc_functional_eval               17720 11.0     0.12     0.14  2679.52  2848.27
 rs_distribute_matrix             35450  8.5    37.73    49.74  1250.15  2536.51
 mp_alltoall_d11v                248125  9.3  1235.04  2522.54  1235.04  2522.54
 x_to_yz                          97418 13.3  1535.64  1609.97  2296.76  2373.10
 lyp_lsd_eval                      8860 12.0  1940.79  2069.78  1940.79  2069.78
 rs_pw_transfer_PW2RS_150         17730 12.0  1380.36  1392.59  2005.17  2022.56
 yz_to_x                          88645 12.6   992.76  1045.37  1669.86  1780.08
 mp_alltoall_z22v                186063 14.0  1438.23  1640.81  1438.23  1640.81
 pw_scatter_p                     97418 12.3  1503.04  1518.00  1503.04  1518.00
 pw_gather_p                      88645 11.6  1419.25  1444.68  1419.25  1444.68
 -------------------------------------------------------------------------------

 The number of warnings for this run is : 7
 
 -------------------------------------------------------------------------------
  **** **** ******  **  PROGRAM ENDED AT                 2023-10-03 07:31:50.334
 ***** ** ***  *** **   PROGRAM RAN ON                                sebnode107
 **    ****   ******    PROGRAM RAN BY                                    luehrs
 ***** **    ** ** **   PROGRAM PROCESS ID                               1960310
  **** **  *******  **  PROGRAM STOPPED IN /home/luehrs/PhD/Sodium-graphene-edge
                                           /graphene_zig-zag/No-hydrogen/Sodium
