 DBCSR| CPU Multiplication driver                                           BLAS (U)
 DBCSR| Multrec recursion limit                                              512 (U)
 DBCSR| Multiplication stack size                                           1000 (D)
 DBCSR| Maximum elements for images                                    UNLIMITED (U)
 DBCSR| Multiplicative factor virtual images                                   1 (U)
 DBCSR| Use multiplication densification                                       T (D)
 DBCSR| Multiplication size stacks                                             3 (U)
 DBCSR| Use memory pool for CPU allocation                                     F (U)
 DBCSR| Number of 3D layers                                               SINGLE (U)
 DBCSR| Use MPI memory allocation                                              F (U)
 DBCSR| Use RMA algorithm                                                      F (U)
 DBCSR| Use Communication thread                                               T (U)
 DBCSR| Communication thread load                                             87 (D)
 DBCSR| MPI: My process id                                                     0
 DBCSR| MPI: Number of processes                                              16
 DBCSR| OMP: Current number of threads                                         1
 DBCSR| OMP: Max number of threads                                             1
 DBCSR| Split modifier for TAS multiplication algorithm                  1.0E+00 (U)


  **** **** ******  **  PROGRAM STARTED AT               2025-06-04 02:50:59.699
 ***** ** ***  *** **   PROGRAM STARTED ON                            sebnode102
 **    ****   ******    PROGRAM STARTED BY                                luehrs
 ***** **    ** ** **   PROGRAM PROCESS ID                                734958
  **** **  *******  **  PROGRAM STARTED IN /home/luehrs/PhD/Sodium_batteries/Sod
                                           ium-graphene-edge/Zig_zag_1/No-hydrog
                                           en/Sodium

 CP2K| version string:                                       CP2K version 2023.1
 CP2K| source code revision number:                                  git:b888bd8
 CP2K| cp2kflags: omp libint fftw3 libxc elpa parallel scalapack spglib         
 CP2K| is freely available from                            https://www.cp2k.org/
 CP2K| Program compiled at                          Tue Jan 10 19:52:03 UTC 2023
 CP2K| Program compiled on                                            x86-ubc-01
 CP2K| Program compiled for                                Linux-x86_64-gfortran
 CP2K| Data directory path                                       /usr/share/cp2k
 CP2K| Input file name                                         input.zig-zag.inp

 GLOBAL| Force Environment number                                              1
 GLOBAL| Basis set file name                                      ./BASIS_MOLOPT
 GLOBAL| Potential file name                                    ./GTH_POTENTIALS
 GLOBAL| MM Potential file name                                     MM_POTENTIAL
 GLOBAL| Coordinate file name           graphene_zig-zag_no-hydrogen_sodium_rela
 GLOBAL| Method name                                                        CP2K
 GLOBAL| Project name                           graphene_zig_zag_sodium_BSSE_PBE
 GLOBAL| Run type                                                           BSSE
 GLOBAL| FFT library                                                       FFTW3
 GLOBAL| Diagonalization library                                            ELPA
 GLOBAL| DGEMM library                                                      BLAS
 GLOBAL| Minimum number of eigenvectors for ELPA usage                        16
 GLOBAL| Orthonormality check for eigenvectors                          DISABLED
 GLOBAL| Matrix multiplication library                                 ScaLAPACK
 GLOBAL| All-to-all communication in single precision                          F
 GLOBAL| FFTs using library dependent lengths                                  F
 GLOBAL| Grid backend                                                       AUTO
 GLOBAL| Global print level                                               MEDIUM
 GLOBAL| MPI I/O enabled                                                       T
 GLOBAL| Total number of message passing processes                            16
 GLOBAL| Number of threads for this process                                    1
 GLOBAL| This output is from process                                           0
 GLOBAL| Stack size for threads created by OpenMP (OMP_STACKSIZE)        default
 GLOBAL| CPU model name                Intel(R) Xeon(R) CPU E5-2620 v4 @ 2.10GHz

 MEMORY| system memory details [Kb]
 MEMORY|                        rank 0           min           max       average
 MEMORY| MemTotal             65831284      65831284      65831284      65831284
 MEMORY| MemFree              61662272      61662272      61662272      61662272
 MEMORY| Buffers                209520        209520        209520        209520
 MEMORY| Cached                1893020       1893020       1893020       1893020
 MEMORY| Slab                   262300        262300        262300        262300
 MEMORY| SReclaimable           137604        137604        137604        137604
 MEMORY| MemLikelyFree        63902416      63902416      63902416      63902416


 *** Fundamental physical constants (SI units) ***

 *** Literature: B. J. Mohr and B. N. Taylor,
 ***             CODATA recommended values of the fundamental physical
 ***             constants: 2006, Web Version 5.1
 ***             http://physics.nist.gov/constants

 Speed of light in vacuum [m/s]                             2.99792458000000E+08
 Magnetic constant or permeability of vacuum [N/A**2]       1.25663706143592E-06
 Electric constant or permittivity of vacuum [F/m]          8.85418781762039E-12
 Planck constant (h) [J*s]                                  6.62606896000000E-34
 Planck constant (h-bar) [J*s]                              1.05457162825177E-34
 Elementary charge [C]                                      1.60217648700000E-19
 Electron mass [kg]                                         9.10938215000000E-31
 Electron g factor [ ]                                     -2.00231930436220E+00
 Proton mass [kg]                                           1.67262163700000E-27
 Fine-structure constant                                    7.29735253760000E-03
 Rydberg constant [1/m]                                     1.09737315685270E+07
 Avogadro constant [1/mol]                                  6.02214179000000E+23
 Boltzmann constant [J/K]                                   1.38065040000000E-23
 Atomic mass unit [kg]                                      1.66053878200000E-27
 Bohr radius [m]                                            5.29177208590000E-11

 *** Conversion factors ***

 [u] -> [a.u.]                                              1.82288848426455E+03
 [Angstrom] -> [Bohr] = [a.u.]                              1.88972613288564E+00
 [a.u.] = [Bohr] -> [Angstrom]                              5.29177208590000E-01
 [a.u.] -> [s]                                              2.41888432650478E-17
 [a.u.] -> [fs]                                             2.41888432650478E-02
 [a.u.] -> [J]                                              4.35974393937059E-18
 [a.u.] -> [N]                                              8.23872205491840E-08
 [a.u.] -> [K]                                              3.15774647902944E+05
 [a.u.] -> [kJ/mol]                                         2.62549961709828E+03
 [a.u.] -> [kcal/mol]                                       6.27509468713739E+02
 [a.u.] -> [Pa]                                             2.94210107994716E+13
 [a.u.] -> [bar]                                            2.94210107994716E+08
 [a.u.] -> [atm]                                            2.90362800883016E+08
 [a.u.] -> [eV]                                             2.72113838565563E+01
 [a.u.] -> [Hz]                                             6.57968392072181E+15
 [a.u.] -> [1/cm] (wave numbers)                            2.19474631370540E+05
 [a.u./Bohr**2] -> [1/cm]                                   5.14048714338585E+03
 

 CELL_TOP| Volume [angstrom^3]:                                     13612.533707
 CELL_TOP| Vector a [angstrom    19.648     0.000     0.000   |a| =    19.648000
 CELL_TOP| Vector b [angstrom    20.000    34.641     0.000   |b| =    40.000000
 CELL_TOP| Vector c [angstrom     0.000     0.000    20.000   |c| =    20.000000
 CELL_TOP| Angle (b,c), alpha [degree]:                                90.000000
 CELL_TOP| Angle (a,c), beta  [degree]:                                90.000000
 CELL_TOP| Angle (a,b), gamma [degree]:                                60.000000
 CELL_TOP| Requested initial symmetry:                                 TRICLINIC
 CELL_TOP| Numerically orthorhombic:                                          NO
 CELL_TOP| Periodicity                                                       XYZ

 GENERATE|  Preliminary Number of Bonds generated:                             0
 GENERATE|  Achieved consistency in connectivity generation.

 CELL| Volume [angstrom^3]:                                         13612.533707
 CELL| Vector a [angstrom]:      19.648     0.000     0.000   |a| =    19.648000
 CELL| Vector b [angstrom]:      20.000    34.641     0.000   |b| =    40.000000
 CELL| Vector c [angstrom]:       0.000     0.000    20.000   |c| =    20.000000
 CELL| Angle (b,c), alpha [degree]:                                    90.000000
 CELL| Angle (a,c), beta  [degree]:                                    90.000000
 CELL| Angle (a,b), gamma [degree]:                                    60.000000
 CELL| Requested initial symmetry:                                     TRICLINIC
 CELL| Numerically orthorhombic:                                              NO
 CELL| Periodicity                                                           XYZ

 CELL_REF| Volume [angstrom^3]:                                     13612.533707
 CELL_REF| Vector a [angstrom    19.648     0.000     0.000   |a| =    19.648000
 CELL_REF| Vector b [angstrom    20.000    34.641     0.000   |b| =    40.000000
 CELL_REF| Vector c [angstrom     0.000     0.000    20.000   |c| =    20.000000
 CELL_REF| Angle (b,c), alpha [degree]:                                90.000000
 CELL_REF| Angle (a,c), beta  [degree]:                                90.000000
 CELL_REF| Angle (a,b), gamma [degree]:                                60.000000
 CELL_REF| Requested initial symmetry:                                 TRICLINIC
 CELL_REF| Numerically orthorhombic:                                          NO
 CELL_REF| Periodicity                                                       XYZ

 *******************************************************************************
 *******************************************************************************
 **                                                                           **
 **     #####                         ##              ##                      **
 **    ##   ##            ##          ##              ##                      **
 **   ##     ##                       ##            ######                    **
 **   ##     ##  ##   ##  ##   #####  ##  ##   ####   ##    #####    #####    **
 **   ##     ##  ##   ##  ##  ##      ## ##   ##      ##   ##   ##  ##   ##   **
 **   ##  ## ##  ##   ##  ##  ##      ####     ###    ##   ######   ######    **
 **    ##  ###   ##   ##  ##  ##      ## ##      ##   ##   ##       ##        **
 **     #######   #####   ##   #####  ##  ##  ####    ##    #####   ##        **
 **           ##                                                    ##        **
 **                                                                           **
 **                                                ... make the atoms dance   **
 **                                                                           **
 **            Copyright (C) by CP2K developers group (2000-2022)             **
 **                      J. Chem. Phys. 152, 194103 (2020)                    **
 **                                                                           **
 *******************************************************************************

 DFT| Spin unrestricted (spin-polarized) Kohn-Sham calculation               UKS
 DFT| Multiplicity                                                             1
 DFT| Number of spin states                                                    2
 DFT| Charge                                                                   1
 DFT| Self-interaction correction (SIC)                                       NO
 DFT| Cutoffs: density                                              1.000000E-10
 DFT|          gradient                                             1.000000E-10
 DFT|          tau                                                  1.000000E-10
 DFT|          cutoff_smoothing_range                               0.000000E+00
 DFT| XC density smoothing                                                  NONE
 DFT| XC derivatives                                              SPLINE2_SMOOTH

 FUNCTIONAL| PBE:
 FUNCTIONAL| J.P.Perdew, K.Burke, M.Ernzerhof, Phys. Rev. Letter, vol. 77, n 18,
 FUNCTIONAL|  pp. 3865-3868, (1996){spin polarized}                             

 vdW POTENTIAL|                                                   Pair Potential
 vdW POTENTIAL|          DFT-D3 (Version 3.1)
 vdW POTENTIAL|          Potential Form: S. Grimme et al, JCP 132: 154104 (2010)
 vdW POTENTIAL|          Zero Damping
 vdW POTENTIAL|          Cutoff Radius [Bohr]:                             20.00
 vdW POTENTIAL|          s6 Scaling Factor:                               1.0000
 vdW POTENTIAL|          sr6 Scaling Factor:                              1.2170
 vdW POTENTIAL|          s8 Scaling Factor:                               0.7220
 vdW POTENTIAL|          Cutoff for CN calculation:                   0.1000E-05

 QS| Method:                                                                 GPW
 QS| Density plane wave grid type                        NON-SPHERICAL FULLSPACE
 QS| Number of grid levels:                                                    4
 QS| Density cutoff [a.u.]:                                                150.0
 QS| Multi grid cutoff [a.u.]: 1) grid level                               150.0
 QS|                           2) grid level                                50.0
 QS|                           3) grid level                                16.7
 QS|                           4) grid level                                 5.6
 QS| Grid level progression factor:                                          3.0
 QS| Relative density cutoff [a.u.]:                                        20.0
 QS| Interaction thresholds: eps_pgf_orb:                                1.0E-06
 QS|                         eps_filter_matrix:                          0.0E+00
 QS|                         eps_core_charge:                            1.0E-14
 QS|                         eps_rho_gspace:                             1.0E-12
 QS|                         eps_rho_rspace:                             1.0E-12
 QS|                         eps_gvg_rspace:                             1.0E-06
 QS|                         eps_ppl:                                    1.0E-02
 QS|                         eps_ppnl:                                   1.0E-08


 ATOMIC KIND INFORMATION

  1. Atomic kind: C                                     Number of atoms:     112

     Orbital Basis Set                                        DZVP-MOLOPT-SR-GTH

       Number of orbital shell sets:                                           1
       Number of orbital shells:                                               5
       Number of primitive Cartesian functions:                                5
       Number of Cartesian basis functions:                                   14
       Number of spherical basis functions:                                   13
       Norm type:                                                              2

       Normalised Cartesian orbitals:

                        Set   Shell   Orbital            Exponent    Coefficient

                          1       1    2s                5.605331       0.322515
                                                         2.113016       0.213043
                                                         0.769911      -0.209686
                                                         0.348157      -0.219794
                                                         0.128212      -0.022789

                          1       2    3s                5.605331       0.552234
                                                         2.113016       0.082072
                                                         0.769911       0.007843
                                                         0.348157       0.136893
                                                         0.128212       0.074283

                          1       3    3px               5.605331      -0.703879
                                                         2.113016      -0.642521
                                                         0.769911      -0.374851
                                                         0.348157      -0.139743
                                                         0.128212      -0.027849
                          1       3    3py               5.605331      -0.703879
                                                         2.113016      -0.642521
                                                         0.769911      -0.374851
                                                         0.348157      -0.139743
                                                         0.128212      -0.027849
                          1       3    3pz               5.605331      -0.703879
                                                         2.113016      -0.642521
                                                         0.769911      -0.374851
                                                         0.348157      -0.139743
                                                         0.128212      -0.027849

                          1       4    4px               5.605331      -0.480376
                                                         2.113016      -0.552894
                                                         0.769911      -0.316145
                                                         0.348157       0.210505
                                                         0.128212       0.076095
                          1       4    4py               5.605331      -0.480376
                                                         2.113016      -0.552894
                                                         0.769911      -0.316145
                                                         0.348157       0.210505
                                                         0.128212       0.076095
                          1       4    4pz               5.605331      -0.480376
                                                         2.113016      -0.552894
                                                         0.769911      -0.316145
                                                         0.348157       0.210505
                                                         0.128212       0.076095

                          1       5    4dx2              5.605331       0.640026
                                                         2.113016       0.274300
                                                         0.769911       0.446711
                                                         0.348157       0.028674
                                                         0.128212       0.029790
                          1       5    4dxy              5.605331       1.108557
                                                         2.113016       0.475102
                                                         0.769911       0.773726
                                                         0.348157       0.049666
                                                         0.128212       0.051599
                          1       5    4dxz              5.605331       1.108557
                                                         2.113016       0.475102
                                                         0.769911       0.773726
                                                         0.348157       0.049666
                                                         0.128212       0.051599
                          1       5    4dy2              5.605331       0.640026
                                                         2.113016       0.274300
                                                         0.769911       0.446711
                                                         0.348157       0.028674
                                                         0.128212       0.029790
                          1       5    4dyz              5.605331       1.108557
                                                         2.113016       0.475102
                                                         0.769911       0.773726
                                                         0.348157       0.049666
                                                         0.128212       0.051599
                          1       5    4dz2              5.605331       0.640026
                                                         2.113016       0.274300
                                                         0.769911       0.446711
                                                         0.348157       0.028674
                                                         0.128212       0.029790

       Atomic covalent radius [Angstrom]:                                  0.770

       Atomic van der Waals radius [Angstrom]:                             1.700

     GTH Potential information for                                    GTH-PBE-q4

       Description:                       Goedecker-Teter-Hutter pseudopotential
                                           Goedecker et al., PRB 54, 1703 (1996)
                                          Hartwigsen et al., PRB 58, 3641 (1998)
                                                      Krack, TCA 114, 145 (2005)

       Gaussian exponent of the core charge distribution:               4.364419
       Electronic configuration (s p d ...):                               2   2

       Parameters of the local part of the GTH pseudopotential:

                          rloc        C1          C2          C3          C4
                        0.338471   -8.803674    1.339211

       Parameters of the non-local part of the GTH pseudopotential:

                   l      r(l)      h(i,j,l)

                   0    0.302576    9.622487
                   1    0.291507

  2. Atomic kind: Na                                    Number of atoms:       1

     Orbital Basis Set                                        DZVP-MOLOPT-SR-GTH

       Number of orbital shell sets:                                           1
       Number of orbital shells:                                               5
       Number of primitive Cartesian functions:                                7
       Number of Cartesian basis functions:                                    9
       Number of spherical basis functions:                                    9
       Norm type:                                                              2

       Normalised Cartesian orbitals:

                        Set   Shell   Orbital            Exponent    Coefficient

                          1       1    2s               23.518801       0.288931
                                                        11.135656       0.787174
                                                         4.647814      -0.190850
                                                         1.866708      -0.573823
                                                         0.734684      -0.276866
                                                         0.275673      -0.024211
                                                         0.049895      -0.000019

                          1       2    3s               23.518801       0.039212
                                                        11.135656       0.138585
                                                         4.647814      -0.048916
                                                         1.866708      -0.102378
                                                         0.734684      -0.139633
                                                         0.275673       0.012767
                                                         0.049895       0.077569

                          1       3    4s               23.518801       0.303698
                                                        11.135656      -0.548845
                                                         4.647814       0.534441
                                                         1.866708      -0.220920
                                                         0.734684       0.980584
                                                         0.275673      -0.653367
                                                         0.049895       0.063703

                          1       4    3px              23.518801      -2.919466
                                                        11.135656      -2.855941
                                                         4.647814      -2.579491
                                                         1.866708      -1.208264
                                                         0.734684      -0.321406
                                                         0.275673      -0.035032
                                                         0.049895      -0.000067
                          1       4    3py              23.518801      -2.919466
                                                        11.135656      -2.855941
                                                         4.647814      -2.579491
                                                         1.866708      -1.208264
                                                         0.734684      -0.321406
                                                         0.275673      -0.035032
                                                         0.049895      -0.000067
                          1       4    3pz              23.518801      -2.919466
                                                        11.135656      -2.855941
                                                         4.647814      -2.579491
                                                         1.866708      -1.208264
                                                         0.734684      -0.321406
                                                         0.275673      -0.035032
                                                         0.049895      -0.000067

                          1       5    4px              23.518801      -0.381914
                                                        11.135656      -0.488169
                                                         4.647814      -0.407378
                                                         1.866708      -0.201739
                                                         0.734684      -0.078845
                                                         0.275673       0.043427
                                                         0.049895       0.031563
                          1       5    4py              23.518801      -0.381914
                                                        11.135656      -0.488169
                                                         4.647814      -0.407378
                                                         1.866708      -0.201739
                                                         0.734684      -0.078845
                                                         0.275673       0.043427
                                                         0.049895       0.031563
                          1       5    4pz              23.518801      -0.381914
                                                        11.135656      -0.488169
                                                         4.647814      -0.407378
                                                         1.866708      -0.201739
                                                         0.734684      -0.078845
                                                         0.275673       0.043427
                                                         0.049895       0.031563

       Atomic covalent radius [Angstrom]:                                  1.540

       Atomic van der Waals radius [Angstrom]:                             2.270

     GTH Potential information for                                    GTH-PBE-q9

       Description:                       Goedecker-Teter-Hutter pseudopotential
                                           Goedecker et al., PRB 54, 1703 (1996)
                                          Hartwigsen et al., PRB 58, 3641 (1998)
                                                      Krack, TCA 114, 145 (2005)

       Gaussian exponent of the core charge distribution:               8.937631
       Electronic configuration (s p d ...):                               3   6

       Parameters of the local part of the GTH pseudopotential:

                          rloc        C1          C2          C3          C4
                        0.236523    0.295105   -0.913885

       Parameters of the non-local part of the GTH pseudopotential:

                   l      r(l)      h(i,j,l)

                   0    0.143560   34.601492
                   1    0.129932  -14.277462


 MOLECULE KIND INFORMATION


 All atoms are their own molecule, skipping detailed information


 TOTAL NUMBERS AND MAXIMUM NUMBERS

  Total number of            - Atomic kinds:                                   2
                             - Atoms:                                        113
                             - Shell sets:                                   113
                             - Shells:                                       565
                             - Primitive Cartesian functions:                567
                             - Cartesian basis functions:                   1577
                             - Spherical basis functions:                   1465

  Maximum angular momentum of- Orbital basis functions:                        2
                             - Local part of the GTH pseudopotential:          2
                             - Non-local part of the GTH pseudopotential:      1


 MODULE QUICKSTEP: ATOMIC COORDINATES IN ANGSTROM

   Atom Kind Element         X             Y             Z       Z(eff)     Mass
      1    1 C     6      8.616720     15.012843      0.575573   4.0000  12.0107
      2    1 C     6      9.850117     15.599867      0.880908   4.0000  12.0107
      3    1 C     6     11.096397     14.977768      0.803852   4.0000  12.0107
      4    1 C     6     12.349403     15.598622      0.887287   4.0000  12.0107
      5    1 C     6     13.569802     14.996315      0.555649   4.0000  12.0107
      6    1 C     6     14.791148     15.625797      0.326160   4.0000  12.0107
      7    1 C     6     15.993726     15.020798     -0.033842   4.0000  12.0107
      8    1 C     6     17.196409     15.611177     -0.423012   4.0000  12.0107
      9    1 C     6     18.427561     14.979333     -0.576700   4.0000  12.0107
     10    1 C     6     19.657841     15.572916     -0.890782   4.0000  12.0107
     11    1 C     6     20.907442     14.963432     -0.731480   4.0000  12.0107
     12    1 C     6     22.157499     15.583786     -0.780748   4.0000  12.0107
     13    1 C     6     23.381070     15.005203     -0.432367   4.0000  12.0107
     14    1 C     6     24.610297     15.637592     -0.250333   4.0000  12.0107
     15    1 C     6     25.821919     15.026499      0.072205   4.0000  12.0107
     16    1 C     6     27.038218     15.639947      0.372181   4.0000  12.0107
     17    1 C     6     25.819153     13.545742      0.101654   4.0000  12.0107
     18    1 C     6     23.369534     13.537023     -0.230049   4.0000  12.0107
     19    1 C     6     20.907001     13.517472     -0.418110   4.0000  12.0107
     20    1 C     6     18.442784     13.521851     -0.325816   4.0000  12.0107
     21    1 C     6     15.996774     13.538130      0.013186   4.0000  12.0107
     22    1 C     6     14.775119     12.830309      0.185398   4.0000  12.0107
     23    1 C     6     13.554111     13.528151      0.384709   4.0000  12.0107
     24    1 C     6     12.320511     12.822170      0.414768   4.0000  12.0107
     25    1 C     6     11.090520     13.522621      0.540872   4.0000  12.0107
     26    1 C     6      9.856289     12.827920      0.427624   4.0000  12.0107
     27    1 C     6      8.623556     13.539649      0.415273   4.0000  12.0107
     28    1 C     6      7.396306     12.839271      0.246700   4.0000  12.0107
     29    1 C     6     24.592051     12.838908     -0.030325   4.0000  12.0107
     30    1 C     6     22.137492     12.826836     -0.251450   4.0000  12.0107
     31    1 C     6     19.676454     12.817420     -0.299000   4.0000  12.0107
     32    1 C     6     17.220844     12.827380     -0.118758   4.0000  12.0107
     33    1 C     6     24.589548     11.403518      0.024296   4.0000  12.0107
     34    1 C     6     23.363509     10.683498     -0.042257   4.0000  12.0107
     35    1 C     6     22.135792     11.396273     -0.127922   4.0000  12.0107
     36    1 C     6     20.908163     10.676731     -0.117535   4.0000  12.0107
     37    1 C     6     19.679023     11.390170     -0.151165   4.0000  12.0107
     38    1 C     6     18.451148     10.675297     -0.076418   4.0000  12.0107
     39    1 C     6     17.224076     11.393127     -0.041538   4.0000  12.0107
     40    1 C     6     15.998309     10.677654      0.052110   4.0000  12.0107
     41    1 C     6     14.773279     11.394999      0.149090   4.0000  12.0107
     42    1 C     6     13.545771     10.678478      0.211254   4.0000  12.0107
     43    1 C     6     12.317674     11.392964      0.305460   4.0000  12.0107
     44    1 C     6     11.086025     10.680405      0.287073   4.0000  12.0107
     45    1 C     6      9.855967     11.397008      0.318929   4.0000  12.0107
     46    1 C     6      8.624725     10.685266      0.240816   4.0000  12.0107
     47    1 C     6      7.396465     11.403403      0.208189   4.0000  12.0107
     48    1 C     6      6.168843     10.688093      0.111547   4.0000  12.0107
     49    1 C     6      6.167014      9.258234      0.063415   4.0000  12.0107
     50    1 C     6      7.394967      8.542958      0.067605   4.0000  12.0107
     51    1 C     6      8.623176      9.259091      0.154740   4.0000  12.0107
     52    1 C     6      9.853512      8.543682      0.123135   4.0000  12.0107
     53    1 C     6     11.084644      9.254977      0.186837   4.0000  12.0107
     54    1 C     6     12.313028      8.537359      0.114866   4.0000  12.0107
     55    1 C     6     13.543609      9.250648      0.135595   4.0000  12.0107
     56    1 C     6     14.768470      8.531370      0.054385   4.0000  12.0107
     57    1 C     6     15.996958      9.247267      0.038493   4.0000  12.0107
     58    1 C     6     17.222473      8.527031     -0.012382   4.0000  12.0107
     59    1 C     6     18.450784      9.245206     -0.040835   4.0000  12.0107
     60    1 C     6     19.679472      8.528135     -0.052136   4.0000  12.0107
     61    1 C     6     20.907653      9.246890     -0.066638   4.0000  12.0107
     62    1 C     6     22.136275      8.530323     -0.056897   4.0000  12.0107
     63    1 C     6     23.362360      9.252382     -0.032176   4.0000  12.0107
     64    1 C     6     22.136696      7.099345     -0.077894   4.0000  12.0107
     65    1 C     6     20.908356      6.382367     -0.068502   4.0000  12.0107
     66    1 C     6     19.679301      7.097946     -0.048614   4.0000  12.0107
     67    1 C     6     18.450395      6.380676     -0.047874   4.0000  12.0107
     68    1 C     6     17.221140      7.095821     -0.036679   4.0000  12.0107
     69    1 C     6     15.991085      6.379279     -0.070431   4.0000  12.0107
     70    1 C     6     14.766440      7.103342     -0.036998   4.0000  12.0107
     71    1 C     6     13.536912      6.395502     -0.114889   4.0000  12.0107
     72    1 C     6     12.311135      7.117448     -0.035025   4.0000  12.0107
     73    1 C     6     11.079618      6.415431     -0.134658   4.0000  12.0107
     74    1 C     6      9.853154      7.127020     -0.036614   4.0000  12.0107
     75    1 C     6      8.626390      6.416003     -0.147654   4.0000  12.0107
     76    1 C     6      7.395896      7.120433     -0.062684   4.0000  12.0107
     77    1 C     6      6.171957      6.398927     -0.154973   4.0000  12.0107
     78    1 C     6      4.942164      7.107891     -0.093404   4.0000  12.0107
     79    1 C     6      4.941598      8.536963     -0.013960   4.0000  12.0107
     80    1 C     6      3.718228      6.384645     -0.132056   4.0000  12.0107
     81    1 C     6      3.722132      4.949069     -0.220088   4.0000  12.0107
     82    1 C     6      4.954143      4.255714     -0.399654   4.0000  12.0107
     83    1 C     6      6.178694      4.979589     -0.368451   4.0000  12.0107
     84    1 C     6      7.410817      4.312374     -0.597591   4.0000  12.0107
     85    1 C     6      8.630062      5.017845     -0.433998   4.0000  12.0107
     86    1 C     6      9.853840      4.326611     -0.633899   4.0000  12.0107
     87    1 C     6     11.076396      5.015582     -0.412277   4.0000  12.0107
     88    1 C     6     12.297403      4.306570     -0.540346   4.0000  12.0107
     89    1 C     6     13.531350      4.974642     -0.313667   4.0000  12.0107
     90    1 C     6     14.754898      4.249307     -0.331274   4.0000  12.0107
     91    1 C     6     15.988389      4.943273     -0.154082   4.0000  12.0107
     92    1 C     6     17.218611      4.238197     -0.078122   4.0000  12.0107
     93    1 C     6     18.451427      4.946927     -0.035302   4.0000  12.0107
     94    1 C     6     19.682514      4.240286      0.020116   4.0000  12.0107
     95    1 C     6     20.910815      4.948846     -0.057420   4.0000  12.0107
     96    1 C     6     19.685385      2.774754      0.182606   4.0000  12.0107
     97    1 C     6     18.439356      2.127846      0.219753   4.0000  12.0107
     98    1 C     6     17.210538      2.759016     -0.044702   4.0000  12.0107
     99    1 C     6     15.977326      2.176899     -0.314262   4.0000  12.0107
    100    1 C     6     14.753485      2.772584     -0.550330   4.0000  12.0107
    101    1 C     6     13.507367      2.253724     -0.956966   4.0000  12.0107
    102    1 C     6     12.294063      2.918109     -0.985304   4.0000  12.0107
    103    1 C     6     11.077936      2.299228     -1.461369   4.0000  12.0107
    104    1 C     6      9.855848      2.987583     -1.183536   4.0000  12.0107
    105    1 C     6      8.640293      2.310405     -1.525762   4.0000  12.0107
    106    1 C     6      6.196999      2.270593     -1.046622   4.0000  12.0107
    107    1 C     6      7.414027      2.928872     -1.069827   4.0000  12.0107
    108    1 C     6      4.957579      2.778790     -0.614489   4.0000  12.0107
    109    1 C     6      3.740512      2.182382     -0.340940   4.0000  12.0107
    110    1 C     6      2.509600      2.763969     -0.064487   4.0000  12.0107
    111    1 C     6      2.495476      4.241974     -0.122166   4.0000  12.0107
    112    1 C     6      1.284375      2.131224      0.221681   4.0000  12.0107
    113    2 Na   11      9.928193      0.685493     -2.823729   9.0000  22.9898



 SCF PARAMETERS         Density guess:                                    ATOMIC
                        --------------------------------------------------------
                        max_scf:                                             400
                        max_scf_history:                                       0
                        max_diis:                                              4
                        --------------------------------------------------------
                        eps_scf:                                        3.00E-07
                        eps_scf_history:                                0.00E+00
                        eps_diis:                                       1.00E-01
                        eps_eigval:                                     1.00E-05
                        --------------------------------------------------------
                        level_shift [a.u.]:                             0.000000
                        added MOs                                       100  100
                        --------------------------------------------------------
                        Mixing method:                            BROYDEN_MIXING
                                                charge density mixing in g-space
                        --------------------------------------------------------
                        Smear method:                                FERMI_DIRAC
                        Electronic temperature [K]:                        300.0
                        Electronic temperature [a.u.]:                  9.50E-04
                        Accuracy threshold:                             1.00E-10
                        --------------------------------------------------------
                        Outer loop SCF in use 
                        No variables optimised in outer loop
                        eps_scf                                         1.00E-06
                        max_scf                                              100
                        DIIS optimization
                        DIIS buffer length                                     3
                        step_size                                       5.00E-01

 PW_GRID| Information for grid number                                          1
 PW_GRID| Grid distributed over                                    16 processors
 PW_GRID| Real space group dimensions                                    16    1
 PW_GRID| the grid is blocked:                                                NO
 PW_GRID| Cutoff [a.u.]                                                    150.0
 PW_GRID| spherical cutoff:                                                   NO
 PW_GRID|   Bounds   1           -108     107                Points:         216
 PW_GRID|   Bounds   2           -216     215                Points:         432
 PW_GRID|   Bounds   3           -108     107                Points:         216
 PW_GRID| Volume element (a.u.^3)  0.4558E-02     Volume (a.u.^3)     91861.9320
 PW_GRID| Grid span                                                    FULLSPACE
 PW_GRID|   Distribution                         Average         Max         Min
 PW_GRID|   G-Vectors                          1259712.0     1259712     1259712
 PW_GRID|   G-Rays                                5832.0        5832        5832
 PW_GRID|   Real Space Points                  1259712.0     1306368     1213056

 PW_GRID| Information for grid number                                          2
 PW_GRID| Number of the reference grid                                         1
 PW_GRID| Grid distributed over                                    16 processors
 PW_GRID| Real space group dimensions                                    16    1
 PW_GRID| the grid is blocked:                                                NO
 PW_GRID| Cutoff [a.u.]                                                     50.0
 PW_GRID| spherical cutoff:                                                   NO
 PW_GRID|   Bounds   1            -60      59                Points:         120
 PW_GRID|   Bounds   2           -121     121                Points:         243
 PW_GRID|   Bounds   3            -62      62                Points:         125
 PW_GRID| Volume element (a.u.^3)  0.2520E-01     Volume (a.u.^3)     91861.9320
 PW_GRID| Grid span                                                    FULLSPACE
 PW_GRID|   Distribution                         Average         Max         Min
 PW_GRID|   G-Vectors                           227812.5      228960      226320
 PW_GRID|   G-Rays                                1898.4        1908        1886
 PW_GRID|   Real Space Points                   227812.5      243000      212625

 PW_GRID| Information for grid number                                          3
 PW_GRID| Number of the reference grid                                         1
 PW_GRID| Grid distributed over                                    16 processors
 PW_GRID| Real space group dimensions                                    16    1
 PW_GRID| the grid is blocked:                                                NO
 PW_GRID| Cutoff [a.u.]                                                     16.7
 PW_GRID| spherical cutoff:                                                   NO
 PW_GRID|   Bounds   1            -36      35                Points:          72
 PW_GRID|   Bounds   2            -72      71                Points:         144
 PW_GRID|   Bounds   3            -36      35                Points:          72
 PW_GRID| Volume element (a.u.^3)  0.1231         Volume (a.u.^3)     91861.9320
 PW_GRID| Grid span                                                    FULLSPACE
 PW_GRID|   Distribution                         Average         Max         Min
 PW_GRID|   G-Vectors                            46656.0       46944       46512
 PW_GRID|   G-Rays                                 648.0         652         646
 PW_GRID|   Real Space Points                    46656.0       51840       41472

 PW_GRID| Information for grid number                                          4
 PW_GRID| Number of the reference grid                                         1
 PW_GRID| Grid distributed over                                    16 processors
 PW_GRID| Real space group dimensions                                    16    1
 PW_GRID| the grid is blocked:                                                NO
 PW_GRID| Cutoff [a.u.]                                                      5.6
 PW_GRID| spherical cutoff:                                                   NO
 PW_GRID|   Bounds   1            -20      19                Points:          40
 PW_GRID|   Bounds   2            -40      40                Points:          81
 PW_GRID|   Bounds   3            -22      22                Points:          45
 PW_GRID| Volume element (a.u.^3)  0.6301         Volume (a.u.^3)     91861.9320
 PW_GRID| Grid span                                                    FULLSPACE
 PW_GRID|   Distribution                         Average         Max         Min
 PW_GRID|   G-Vectors                             9112.5        9240        9000
 PW_GRID|   G-Rays                                 227.8         231         225
 PW_GRID|   Real Space Points                     9112.5       10935        7290

 POISSON| Solver                                                        PERIODIC
 POISSON| Periodicity                                                        XYZ

 RS_GRID| Information for grid number                                          1
 RS_GRID|   Bounds   1           -108     107                Points:         216
 RS_GRID|   Bounds   2           -216     215                Points:         432
 RS_GRID|   Bounds   3           -108     107                Points:         216
 RS_GRID| Real space distribution over                                 16 groups
 RS_GRID| Real space distribution along direction                              2
 RS_GRID| Border size                                                         35
 RS_GRID|   Distribution                         Average         Max         Min
 RS_GRID|   Planes                                  97.0          97          97

 RS_GRID| Information for grid number                                          2
 RS_GRID|   Bounds   1            -60      59                Points:         120
 RS_GRID|   Bounds   2           -121     121                Points:         243
 RS_GRID|   Bounds   3            -62      62                Points:         125
 RS_GRID| Real space distribution over                                 16 groups
 RS_GRID| Real space distribution along direction                              2
 RS_GRID| Border size                                                         35
 RS_GRID|   Distribution                         Average         Max         Min
 RS_GRID|   Planes                                  85.2          86          85

 RS_GRID| Information for grid number                                          3
 RS_GRID|   Bounds   1            -36      35                Points:          72
 RS_GRID|   Bounds   2            -72      71                Points:         144
 RS_GRID|   Bounds   3            -36      35                Points:          72
 RS_GRID| Real space fully replicated
 RS_GRID| Group size                                                           1

 RS_GRID| Information for grid number                                          4
 RS_GRID|   Bounds   1            -20      19                Points:          40
 RS_GRID|   Bounds   2            -40      40                Points:          81
 RS_GRID|   Bounds   3            -22      22                Points:          45
 RS_GRID| Real space fully replicated
 RS_GRID| Group size                                                           1

 -------------------------------------------------------------------------------
 -                                                                             -
 -  BSSE CALCULATION         FRAGMENT CONF: 10        FRAGMENT SUBCONF: 10     -
 -                           CHARGE =     0           MULTIPLICITY =     0     -
 -                                                                             -
 -                 ATOM INDEX                              ATOM NAME           -
 -                 ----------                              ---------           -
 -                      1                                   C                  -
 -                      2                                   C                  -
 -                      3                                   C                  -
 -                      4                                   C                  -
 -                      5                                   C                  -
 -                      6                                   C                  -
 -                      7                                   C                  -
 -                      8                                   C                  -
 -                      9                                   C                  -
 -                     10                                   C                  -
 -                     11                                   C                  -
 -                     12                                   C                  -
 -                     13                                   C                  -
 -                     14                                   C                  -
 -                     15                                   C                  -
 -                     16                                   C                  -
 -                     17                                   C                  -
 -                     18                                   C                  -
 -                     19                                   C                  -
 -                     20                                   C                  -
 -                     21                                   C                  -
 -                     22                                   C                  -
 -                     23                                   C                  -
 -                     24                                   C                  -
 -                     25                                   C                  -
 -                     26                                   C                  -
 -                     27                                   C                  -
 -                     28                                   C                  -
 -                     29                                   C                  -
 -                     30                                   C                  -
 -                     31                                   C                  -
 -                     32                                   C                  -
 -                     33                                   C                  -
 -                     34                                   C                  -
 -                     35                                   C                  -
 -                     36                                   C                  -
 -                     37                                   C                  -
 -                     38                                   C                  -
 -                     39                                   C                  -
 -                     40                                   C                  -
 -                     41                                   C                  -
 -                     42                                   C                  -
 -                     43                                   C                  -
 -                     44                                   C                  -
 -                     45                                   C                  -
 -                     46                                   C                  -
 -                     47                                   C                  -
 -                     48                                   C                  -
 -                     49                                   C                  -
 -                     50                                   C                  -
 -                     51                                   C                  -
 -                     52                                   C                  -
 -                     53                                   C                  -
 -                     54                                   C                  -
 -                     55                                   C                  -
 -                     56                                   C                  -
 -                     57                                   C                  -
 -                     58                                   C                  -
 -                     59                                   C                  -
 -                     60                                   C                  -
 -                     61                                   C                  -
 -                     62                                   C                  -
 -                     63                                   C                  -
 -                     64                                   C                  -
 -                     65                                   C                  -
 -                     66                                   C                  -
 -                     67                                   C                  -
 -                     68                                   C                  -
 -                     69                                   C                  -
 -                     70                                   C                  -
 -                     71                                   C                  -
 -                     72                                   C                  -
 -                     73                                   C                  -
 -                     74                                   C                  -
 -                     75                                   C                  -
 -                     76                                   C                  -
 -                     77                                   C                  -
 -                     78                                   C                  -
 -                     79                                   C                  -
 -                     80                                   C                  -
 -                     81                                   C                  -
 -                     82                                   C                  -
 -                     83                                   C                  -
 -                     84                                   C                  -
 -                     85                                   C                  -
 -                     86                                   C                  -
 -                     87                                   C                  -
 -                     88                                   C                  -
 -                     89                                   C                  -
 -                     90                                   C                  -
 -                     91                                   C                  -
 -                     92                                   C                  -
 -                     93                                   C                  -
 -                     94                                   C                  -
 -                     95                                   C                  -
 -                     96                                   C                  -
 -                     97                                   C                  -
 -                     98                                   C                  -
 -                     99                                   C                  -
 -                    100                                   C                  -
 -                    101                                   C                  -
 -                    102                                   C                  -
 -                    103                                   C                  -
 -                    104                                   C                  -
 -                    105                                   C                  -
 -                    106                                   C                  -
 -                    107                                   C                  -
 -                    108                                   C                  -
 -                    109                                   C                  -
 -                    110                                   C                  -
 -                    111                                   C                  -
 -                    112                                   C                  -
 -------------------------------------------------------------------------------

 CELL| Volume [angstrom^3]:                                         13612.533707
 CELL| Vector a [angstrom]:      19.648     0.000     0.000   |a| =    19.648000
 CELL| Vector b [angstrom]:      20.000    34.641     0.000   |b| =    40.000000
 CELL| Vector c [angstrom]:       0.000     0.000    20.000   |c| =    20.000000
 CELL| Angle (b,c), alpha [degree]:                                    90.000000
 CELL| Angle (a,c), beta  [degree]:                                    90.000000
 CELL| Angle (a,b), gamma [degree]:                                    60.000000
 CELL| Requested initial symmetry:                                     TRICLINIC
 CELL| Numerically orthorhombic:                                              NO
 CELL| Periodicity                                                           XYZ

 CELL_REF| Volume [angstrom^3]:                                     13612.533707
 CELL_REF| Vector a [angstrom    19.648     0.000     0.000   |a| =    19.648000
 CELL_REF| Vector b [angstrom    20.000    34.641     0.000   |b| =    40.000000
 CELL_REF| Vector c [angstrom     0.000     0.000    20.000   |c| =    20.000000
 CELL_REF| Angle (b,c), alpha [degree]:                                90.000000
 CELL_REF| Angle (a,c), beta  [degree]:                                90.000000
 CELL_REF| Angle (a,b), gamma [degree]:                                60.000000
 CELL_REF| Requested initial symmetry:                                 TRICLINIC
 CELL_REF| Numerically orthorhombic:                                          NO
 CELL_REF| Periodicity                                                       XYZ

 *******************************************************************************
 *******************************************************************************
 **                                                                           **
 **     #####                         ##              ##                      **
 **    ##   ##            ##          ##              ##                      **
 **   ##     ##                       ##            ######                    **
 **   ##     ##  ##   ##  ##   #####  ##  ##   ####   ##    #####    #####    **
 **   ##     ##  ##   ##  ##  ##      ## ##   ##      ##   ##   ##  ##   ##   **
 **   ##  ## ##  ##   ##  ##  ##      ####     ###    ##   ######   ######    **
 **    ##  ###   ##   ##  ##  ##      ## ##      ##   ##   ##       ##        **
 **     #######   #####   ##   #####  ##  ##  ####    ##    #####   ##        **
 **           ##                                                    ##        **
 **                                                                           **
 **                                                ... make the atoms dance   **
 **                                                                           **
 **            Copyright (C) by CP2K developers group (2000-2022)             **
 **                      J. Chem. Phys. 152, 194103 (2020)                    **
 **                                                                           **
 *******************************************************************************

 DFT| Spin unrestricted (spin-polarized) Kohn-Sham calculation               UKS
 DFT| Multiplicity                                                             1
 DFT| Number of spin states                                                    2
 DFT| Charge                                                                   0
 DFT| Self-interaction correction (SIC)                                       NO
 DFT| Cutoffs: density                                              1.000000E-10
 DFT|          gradient                                             1.000000E-10
 DFT|          tau                                                  1.000000E-10
 DFT|          cutoff_smoothing_range                               0.000000E+00
 DFT| XC density smoothing                                                  NONE
 DFT| XC derivatives                                              SPLINE2_SMOOTH

 FUNCTIONAL| PBE:
 FUNCTIONAL| J.P.Perdew, K.Burke, M.Ernzerhof, Phys. Rev. Letter, vol. 77, n 18,
 FUNCTIONAL|  pp. 3865-3868, (1996){spin polarized}                             

 vdW POTENTIAL|                                                   Pair Potential
 vdW POTENTIAL|          DFT-D3 (Version 3.1)
 vdW POTENTIAL|          Potential Form: S. Grimme et al, JCP 132: 154104 (2010)
 vdW POTENTIAL|          Zero Damping
 vdW POTENTIAL|          Cutoff Radius [Bohr]:                             20.00
 vdW POTENTIAL|          s6 Scaling Factor:                               1.0000
 vdW POTENTIAL|          sr6 Scaling Factor:                              1.2170
 vdW POTENTIAL|          s8 Scaling Factor:                               0.7220
 vdW POTENTIAL|          Cutoff for CN calculation:                   0.1000E-05

 QS| Method:                                                                 GPW
 QS| Density plane wave grid type                        NON-SPHERICAL FULLSPACE
 QS| Number of grid levels:                                                    4
 QS| Density cutoff [a.u.]:                                                150.0
 QS| Multi grid cutoff [a.u.]: 1) grid level                               150.0
 QS|                           2) grid level                                50.0
 QS|                           3) grid level                                16.7
 QS|                           4) grid level                                 5.6
 QS| Grid level progression factor:                                          3.0
 QS| Relative density cutoff [a.u.]:                                        20.0
 QS| Interaction thresholds: eps_pgf_orb:                                1.0E-06
 QS|                         eps_filter_matrix:                          0.0E+00
 QS|                         eps_core_charge:                            1.0E-14
 QS|                         eps_rho_gspace:                             1.0E-12
 QS|                         eps_rho_rspace:                             1.0E-12
 QS|                         eps_gvg_rspace:                             1.0E-06
 QS|                         eps_ppl:                                    1.0E-02
 QS|                         eps_ppnl:                                   1.0E-08


 ATOMIC KIND INFORMATION

  1. Atomic kind: C                                     Number of atoms:     112

     Orbital Basis Set                                        DZVP-MOLOPT-SR-GTH

       Number of orbital shell sets:                                           1
       Number of orbital shells:                                               5
       Number of primitive Cartesian functions:                                5
       Number of Cartesian basis functions:                                   14
       Number of spherical basis functions:                                   13
       Norm type:                                                              2

       Normalised Cartesian orbitals:

                        Set   Shell   Orbital            Exponent    Coefficient

                          1       1    2s                5.605331       0.322515
                                                         2.113016       0.213043
                                                         0.769911      -0.209686
                                                         0.348157      -0.219794
                                                         0.128212      -0.022789

                          1       2    3s                5.605331       0.552234
                                                         2.113016       0.082072
                                                         0.769911       0.007843
                                                         0.348157       0.136893
                                                         0.128212       0.074283

                          1       3    3px               5.605331      -0.703879
                                                         2.113016      -0.642521
                                                         0.769911      -0.374851
                                                         0.348157      -0.139743
                                                         0.128212      -0.027849
                          1       3    3py               5.605331      -0.703879
                                                         2.113016      -0.642521
                                                         0.769911      -0.374851
                                                         0.348157      -0.139743
                                                         0.128212      -0.027849
                          1       3    3pz               5.605331      -0.703879
                                                         2.113016      -0.642521
                                                         0.769911      -0.374851
                                                         0.348157      -0.139743
                                                         0.128212      -0.027849

                          1       4    4px               5.605331      -0.480376
                                                         2.113016      -0.552894
                                                         0.769911      -0.316145
                                                         0.348157       0.210505
                                                         0.128212       0.076095
                          1       4    4py               5.605331      -0.480376
                                                         2.113016      -0.552894
                                                         0.769911      -0.316145
                                                         0.348157       0.210505
                                                         0.128212       0.076095
                          1       4    4pz               5.605331      -0.480376
                                                         2.113016      -0.552894
                                                         0.769911      -0.316145
                                                         0.348157       0.210505
                                                         0.128212       0.076095

                          1       5    4dx2              5.605331       0.640026
                                                         2.113016       0.274300
                                                         0.769911       0.446711
                                                         0.348157       0.028674
                                                         0.128212       0.029790
                          1       5    4dxy              5.605331       1.108557
                                                         2.113016       0.475102
                                                         0.769911       0.773726
                                                         0.348157       0.049666
                                                         0.128212       0.051599
                          1       5    4dxz              5.605331       1.108557
                                                         2.113016       0.475102
                                                         0.769911       0.773726
                                                         0.348157       0.049666
                                                         0.128212       0.051599
                          1       5    4dy2              5.605331       0.640026
                                                         2.113016       0.274300
                                                         0.769911       0.446711
                                                         0.348157       0.028674
                                                         0.128212       0.029790
                          1       5    4dyz              5.605331       1.108557
                                                         2.113016       0.475102
                                                         0.769911       0.773726
                                                         0.348157       0.049666
                                                         0.128212       0.051599
                          1       5    4dz2              5.605331       0.640026
                                                         2.113016       0.274300
                                                         0.769911       0.446711
                                                         0.348157       0.028674
                                                         0.128212       0.029790

       Atomic covalent radius [Angstrom]:                                  0.770

       Atomic van der Waals radius [Angstrom]:                             1.700

     GTH Potential information for                                    GTH-PBE-q4

       Description:                       Goedecker-Teter-Hutter pseudopotential
                                           Goedecker et al., PRB 54, 1703 (1996)
                                          Hartwigsen et al., PRB 58, 3641 (1998)
                                                      Krack, TCA 114, 145 (2005)

       Gaussian exponent of the core charge distribution:               4.364419
       Electronic configuration (s p d ...):                               2   2

       Parameters of the local part of the GTH pseudopotential:

                          rloc        C1          C2          C3          C4
                        0.338471   -8.803674    1.339211

       Parameters of the non-local part of the GTH pseudopotential:

                   l      r(l)      h(i,j,l)

                   0    0.302576    9.622487
                   1    0.291507


 MOLECULE KIND INFORMATION


 All atoms are their own molecule, skipping detailed information


 TOTAL NUMBERS AND MAXIMUM NUMBERS

  Total number of            - Atomic kinds:                                   1
                             - Atoms:                                        112
                             - Shell sets:                                   112
                             - Shells:                                       560
                             - Primitive Cartesian functions:                560
                             - Cartesian basis functions:                   1568
                             - Spherical basis functions:                   1456

  Maximum angular momentum of- Orbital basis functions:                        2
                             - Local part of the GTH pseudopotential:          2
                             - Non-local part of the GTH pseudopotential:      0


 MODULE QUICKSTEP: ATOMIC COORDINATES IN ANGSTROM

   Atom Kind Element         X             Y             Z       Z(eff)     Mass
      1    1 C     6      8.616720     15.012843      0.575573   4.0000  12.0107
      2    1 C     6      9.850117     15.599867      0.880908   4.0000  12.0107
      3    1 C     6     11.096397     14.977768      0.803852   4.0000  12.0107
      4    1 C     6     12.349403     15.598622      0.887287   4.0000  12.0107
      5    1 C     6     13.569802     14.996315      0.555649   4.0000  12.0107
      6    1 C     6     14.791148     15.625797      0.326160   4.0000  12.0107
      7    1 C     6     15.993726     15.020798     -0.033842   4.0000  12.0107
      8    1 C     6     17.196409     15.611177     -0.423012   4.0000  12.0107
      9    1 C     6     18.427561     14.979333     -0.576700   4.0000  12.0107
     10    1 C     6     19.657841     15.572916     -0.890782   4.0000  12.0107
     11    1 C     6     20.907442     14.963432     -0.731480   4.0000  12.0107
     12    1 C     6     22.157499     15.583786     -0.780748   4.0000  12.0107
     13    1 C     6     23.381070     15.005203     -0.432367   4.0000  12.0107
     14    1 C     6     24.610297     15.637592     -0.250333   4.0000  12.0107
     15    1 C     6     25.821919     15.026499      0.072205   4.0000  12.0107
     16    1 C     6     27.038218     15.639947      0.372181   4.0000  12.0107
     17    1 C     6     25.819153     13.545742      0.101654   4.0000  12.0107
     18    1 C     6     23.369534     13.537023     -0.230049   4.0000  12.0107
     19    1 C     6     20.907001     13.517472     -0.418110   4.0000  12.0107
     20    1 C     6     18.442784     13.521851     -0.325816   4.0000  12.0107
     21    1 C     6     15.996774     13.538130      0.013186   4.0000  12.0107
     22    1 C     6     14.775119     12.830309      0.185398   4.0000  12.0107
     23    1 C     6     13.554111     13.528151      0.384709   4.0000  12.0107
     24    1 C     6     12.320511     12.822170      0.414768   4.0000  12.0107
     25    1 C     6     11.090520     13.522621      0.540872   4.0000  12.0107
     26    1 C     6      9.856289     12.827920      0.427624   4.0000  12.0107
     27    1 C     6      8.623556     13.539649      0.415273   4.0000  12.0107
     28    1 C     6      7.396306     12.839271      0.246700   4.0000  12.0107
     29    1 C     6     24.592051     12.838908     -0.030325   4.0000  12.0107
     30    1 C     6     22.137492     12.826836     -0.251450   4.0000  12.0107
     31    1 C     6     19.676454     12.817420     -0.299000   4.0000  12.0107
     32    1 C     6     17.220844     12.827380     -0.118758   4.0000  12.0107
     33    1 C     6     24.589548     11.403518      0.024296   4.0000  12.0107
     34    1 C     6     23.363509     10.683498     -0.042257   4.0000  12.0107
     35    1 C     6     22.135792     11.396273     -0.127922   4.0000  12.0107
     36    1 C     6     20.908163     10.676731     -0.117535   4.0000  12.0107
     37    1 C     6     19.679023     11.390170     -0.151165   4.0000  12.0107
     38    1 C     6     18.451148     10.675297     -0.076418   4.0000  12.0107
     39    1 C     6     17.224076     11.393127     -0.041538   4.0000  12.0107
     40    1 C     6     15.998309     10.677654      0.052110   4.0000  12.0107
     41    1 C     6     14.773279     11.394999      0.149090   4.0000  12.0107
     42    1 C     6     13.545771     10.678478      0.211254   4.0000  12.0107
     43    1 C     6     12.317674     11.392964      0.305460   4.0000  12.0107
     44    1 C     6     11.086025     10.680405      0.287073   4.0000  12.0107
     45    1 C     6      9.855967     11.397008      0.318929   4.0000  12.0107
     46    1 C     6      8.624725     10.685266      0.240816   4.0000  12.0107
     47    1 C     6      7.396465     11.403403      0.208189   4.0000  12.0107
     48    1 C     6      6.168843     10.688093      0.111547   4.0000  12.0107
     49    1 C     6      6.167014      9.258234      0.063415   4.0000  12.0107
     50    1 C     6      7.394967      8.542958      0.067605   4.0000  12.0107
     51    1 C     6      8.623176      9.259091      0.154740   4.0000  12.0107
     52    1 C     6      9.853512      8.543682      0.123135   4.0000  12.0107
     53    1 C     6     11.084644      9.254977      0.186837   4.0000  12.0107
     54    1 C     6     12.313028      8.537359      0.114866   4.0000  12.0107
     55    1 C     6     13.543609      9.250648      0.135595   4.0000  12.0107
     56    1 C     6     14.768470      8.531370      0.054385   4.0000  12.0107
     57    1 C     6     15.996958      9.247267      0.038493   4.0000  12.0107
     58    1 C     6     17.222473      8.527031     -0.012382   4.0000  12.0107
     59    1 C     6     18.450784      9.245206     -0.040835   4.0000  12.0107
     60    1 C     6     19.679472      8.528135     -0.052136   4.0000  12.0107
[...]
 count for grid        3:          38466          cutoff [a.u.]           16.67
 count for grid        4:          13811          cutoff [a.u.]            5.56
 total gridlevel count  :         286463

 -------------------------------------------------------------------------------
 -                                                                             -
 -                                 BSSE RESULTS                                -
 -                                                                             -
 -                 CP-corrected Total energy:     -683.271360                  -
 -                                                                             -
 -                       1-body contribution:     -635.973498                  -
 -                       1-body contribution:      -47.166978                  -
 -                                                                             -
 -                       2-body contribution:       -0.130883                  -
 -                 BSSE-free interaction energy:       -0.130883               -
 -------------------------------------------------------------------------------

 -------------------------------------------------------------------------------
 -                                                                             -
 -                                DBCSR STATISTICS                             -
 -                                                                             -
 -------------------------------------------------------------------------------
 COUNTER                                    TOTAL       BLAS       SMM       ACC
 flops     9 x     9 x     8               371952     100.0%      0.0%      0.0%
 flops     9 x     9 x     9               978318     100.0%      0.0%      0.0%
 flops     9 x     9 x    68              6499440     100.0%      0.0%      0.0%
 flops     9 x     9 x    32              8926848     100.0%      0.0%      0.0%
 flops    13 x     9 x     8             24176880     100.0%      0.0%      0.0%
 flops     9 x    13 x     8             25251408     100.0%      0.0%      0.0%
 flops    13 x     9 x     9             27198990     100.0%      0.0%      0.0%
 flops     9 x    13 x     9             28407834     100.0%      0.0%      0.0%
 flops     9 x     9 x    72             76189248     100.0%      0.0%      0.0%
 flops     9 x     9 x    73             77247432     100.0%      0.0%      0.0%
 flops     9 x     9 x    64            141564672     100.0%      0.0%      0.0%
 flops    13 x     9 x    68            422463600     100.0%      0.0%      0.0%
 flops     9 x     9 x    96            424694016     100.0%      0.0%      0.0%
 flops     9 x    13 x    68            441239760     100.0%      0.0%      0.0%
 flops    13 x     9 x    32            580245120     100.0%      0.0%      0.0%
 flops     9 x    13 x    32            606033792     100.0%      0.0%      0.0%
 flops    13 x    13 x     8           4414161024     100.0%      0.0%      0.0%
 flops    13 x     9 x    72           4952301120     100.0%      0.0%      0.0%
 flops    13 x    13 x     9           4965931152     100.0%      0.0%      0.0%
 flops    13 x     9 x    73           5021083080     100.0%      0.0%      0.0%
 flops     9 x    13 x    72           5172403392     100.0%      0.0%      0.0%
 flops     9 x    13 x    73           5244242328     100.0%      0.0%      0.0%
 flops    13 x     9 x    64           9201703680     100.0%      0.0%      0.0%
 flops     9 x    13 x    64           9610668288     100.0%      0.0%      0.0%
 flops    13 x     9 x    96          27605111040     100.0%      0.0%      0.0%
 flops     9 x    13 x    96          28832004864     100.0%      0.0%      0.0%
 flops    13 x    13 x    32         105939864576     100.0%      0.0%      0.0%
 flops    13 x    13 x    68         107201053440     100.0%      0.0%      0.0%
 flops    13 x    13 x    72         904180133376     100.0%      0.0%      0.0%
 flops    13 x    13 x    73         916738190784     100.0%      0.0%      0.0%
 flops    13 x    13 x    64        1708326457344     100.0%      0.0%      0.0%
 flops    13 x    13 x    96        5124979372032     100.0%      0.0%      0.0%
 flops inhomo. stacks                           0       0.0%      0.0%      0.0%
 flops total                         8.975276E+12     100.0%      0.0%      0.0%
 flops max/rank                    590.125078E+09     100.0%      0.0%      0.0%
 matmuls inhomo. stacks                         0       0.0%      0.0%      0.0%
 matmuls total                          334241616     100.0%      0.0%      0.0%
 number of processed stacks               1380992     100.0%      0.0%      0.0%
 average stack size                                   242.0       0.0       0.0
 marketing flops                    14.178314E+12
 -------------------------------------------------------------------------------
 # multiplications                          14842
 max memory usage/rank               1.749508E+09
 # max total images/rank                        1
 # max 3D layers                                1
 # MPI messages exchanged                 1424832
 MPI messages size (bytes):
  total size                       324.649746E+09
  min size                           0.000000E+00
  max size                         286.464000E+03
  average size                     227.851250E+03
 MPI breakdown and total messages size (bytes):
             size <=      128               34560                        0
       128 < size <=     8192                2304                  1492992
      8192 < size <=    32768               13776                343091280
     32768 < size <=   131072               41328               3874913280
    131072 < size <=  4194304             1332864             320430392640
   4194304 < size <= 16777216                   0                        0
  16777216 < size                               0                        0
 -------------------------------------------------------------------------------
 -                                                                             -
 -                      DBCSR MESSAGE PASSING PERFORMANCE                      -
 -                                                                             -
 -------------------------------------------------------------------------------
 ROUTINE             CALLS      AVE VOLUME [Bytes]
 MP_Bcast               33                     12.
 MP_Allreduce       103987                      8.
 MP_Alltoall        415636                 256970.
 MP_ISend           237472                  91894.
 MP_IRecv           237472                  80665.
 -------------------------------------------------------------------------------

 -------------------------------------------------------------------------------
 -                                                                             -
 -                                DBM STATISTICS                               -
 -                                                                             -
 -------------------------------------------------------------------------------
    M  x    N  x    K                                          COUNT     PERCENT
 -------------------------------------------------------------------------------

 -------------------------------------------------------------------------------
 -                                                                             -
 -                                GRID STATISTICS                              -
 -                                                                             -
 -------------------------------------------------------------------------------
 LP    KERNEL             BACKEND                              COUNT     PERCENT
 4     collocate general  REF                              745027932      49.37%
 4     integrate general  REF                              744615916      49.34%
 3     collocate general  REF                                9010122       0.60%
 3     integrate general  REF                                9006324       0.60%
 2     collocate general  REF                                 716380       0.05%
 2     integrate general  REF                                 715988       0.05%
 0     integrate general  REF                                  14464       0.00%
 0     collocate general  REF                                  10848       0.00%
 -------------------------------------------------------------------------------

 MEMORY| Estimated peak process memory [MiB]                                1669

 -------------------------------------------------------------------------------
 ----                             MULTIGRID INFO                            ----
 -------------------------------------------------------------------------------
 count for grid        1:         148480          cutoff [a.u.]          150.00
 count for grid        2:          51840          cutoff [a.u.]           50.00
 count for grid        3:          26560          cutoff [a.u.]           16.67
 count for grid        4:           7360          cutoff [a.u.]            5.56
 total gridlevel count  :         234240

 -------------------------------------------------------------------------------
 -                                                                             -
 -                         MESSAGE PASSING PERFORMANCE                         -
 -                                                                             -
 -------------------------------------------------------------------------------

 ROUTINE             CALLS      AVE VOLUME [Bytes]
 MP_Group               24
 MP_Bcast            22416                  42877.
 MP_Allreduce       142587                    136.
 MP_Sync             15250
 MP_Alltoall        185618               33010696.
 MP_SendRecv        623664                 392574.
 MP_ISendRecv       445260                 251100.
 MP_Wait           1900726
 MP_comm_split         384
 MP_ISend          1247548                1108503.
 MP_IRecv          1247548                1108506.
 MP_Recv              7090                 372068.
 -------------------------------------------------------------------------------


 -------------------------------------------------------------------------------
 -                                                                             -
 -                           R E F E R E N C E S                               -
 -                                                                             -
 -------------------------------------------------------------------------------
 
 CP2K version 2023.1, the CP2K developers group (2023).
 CP2K is freely available from https://www.cp2k.org/ .

 Kuehne,Thomas D.; Iannuzzi,Marcella; Del Ben,Mauro;
 Rybkin,Vladimir V.; Seewald,Patrick; Stein,Frederick; Laino,Teodoro;
 Khaliullin,Rustam Z.; Schuett,Ole; Schiffmann,Florian; Golze,Dorothea;
 Wilhelm,Jan; Chulkov,Sergey; Bani-Hashemian,Mohammad Hossein;
 Weber,Valery; Borstnik,Urban; Taillefumier,Mathieu;
 Jakobovits,Alice Shoshana; Lazzaro,Alfio; Pabst,Hans; Mueller,Tiziano;
 Schade,Robert; Guidon,Manuel; Andermatt,Samuel; Holmberg,Nico;
 Schenter,Gregory K.; Hehn,Anna; Bussy,Augustin; Belleflamme,Fabian;
 Tabacchi,Gloria; Gloess,Andreas; Lass,Michael; Bethune,Iain;
 Mundy,Christopher J.; Plessl,Christian; Watkins,Matt;
 VandeVondele,Joost; Krack,Matthias; Hutter,Juerg. 
 The Journal of Chemical Physics, 152 (19), (2020). 
 CP2K: An electronic structure and molecular dynamics software package -
 Quickstep: Efficient and accurate electronic structure calculations.
 https://doi.org/10.1063/5.0007045

 Goerigk, Lars; Hansen, Andreas; Bauer, Christoph; Ehrlich, Stephan;
 Najibi, Asim; Grimme, Stefan. , 19 (48), (2017). 
 A look at the density functional theory zoo with the advanced GMTKN55 database
 for general main group thermochemistry, kinetics and noncovalent interactions.
 https://doi.org/10.1039/C7CP04913G

 Schuett, Ole; Messmer, Peter; Hutter, Juerg; VandeVondele, Joost. 
 Electronic Structure Calculations on Graphics Processing Units, John
 Wiley & Sons, Ltd, 173-190 (2016). 
 GPU-Accelerated Sparse Matrix-Matrix Multiplication for
 Linear Scaling Density Functional Theory.
 https://doi.org/10.1002/9781118670712.ch8

 Borstnik, U; VandeVondele, J; Weber, V; Hutter, J. 
 PARALLEL COMPUTING, 40 (5-6), 47-58 (2014). 
 Sparse matrix multiplication: The distributed block-compressed sparse
 row library.
 https://doi.org/10.1016/j.parco.2014.03.012

 Hutter, J; Iannuzzi, M; Schiffmann, F; VandeVondele, J. 
 WIREs Comput Mol Sci., 4 (1), 15-25 (2014). 
 CP2K: atomistic simulations of condensed matter systems.
 https://doi.org/10.1002/wcms.1159

 Marek, A; Blum, V; Johanni, R; Havu, V; Lang, B; Auckenthaler, T;
 Heinecke, A; Bungartz, H; Lederer, H. 
 Journal of Physics: Condensed Matter, 26 (21), (2014). 
 The ELPA library: scalable parallel eigenvalue solutions for
 electronic structure
 theory and computational science.
 https://doi.org/10.1088/0953-8984/26/21/213201

 Grimme, S; Ehrlich, S; Goerigk, L. 
 JOURNAL OF COMPUTATIONAL CHEMISTRY, 32, 1456 (2011). 
 Effect of the damping function in dispersion corrected density functional theory.
 https://doi.org/10.1002/jcc.21759

 Grimme, S; Antony, J; Ehrlich, S; Krieg, H. 
 JOURNAL OF CHEMICAL PHYSICS, 132 (15), 154104 (2010). 
 A consistent and accurate ab initio parametrization of density
 functional dispersion correction (DFT-D) for the 94 elements H-Pu.
 https://doi.org/10.1063/1.3382344

 VandeVondele, J; Hutter, J. 
 JOURNAL OF CHEMICAL PHYSICS, 127 (11), 114105 (2007). 
 Gaussian basis sets for accurate calculations on molecular systems in
 gas and condensed phases.
 https://doi.org/10.1063/1.2770708

 Krack, M. 
 THEORETICAL CHEMISTRY ACCOUNTS, 114 (1-3), 145-152 (2005). 
 Pseudopotentials for H to Kr optimized for gradient-corrected
 exchange-correlation functionals.
 https://doi.org/10.1007/s00214-005-0655-y

 VandeVondele, J; Krack, M; Mohamed, F; Parrinello, M; Chassaing, T;
 Hutter, J. COMPUTER PHYSICS COMMUNICATIONS, 167 (2), 103-128 (2005). 
 QUICKSTEP: Fast and accurate density functional calculations using a
 mixed Gaussian and plane waves approach.
 https://doi.org/10.1016/j.cpc.2004.12.014

 Frigo, M; Johnson, SG. 
 PROCEEDINGS OF THE IEEE, 93 (2), 216-231 (2005). 
 The design and implementation of FFTW3.
 https://doi.org/10.1109/JPROC.2004.840301

 Hartwigsen, C; Goedecker, S; Hutter, J. 
 PHYSICAL REVIEW B, 58 (7), 3641-3662 (1998). 
 Relativistic separable dual-space Gaussian pseudopotentials from H to Rn.
 https://doi.org/10.1103/PhysRevB.58.3641

 Lippert, G; Hutter, J; Parrinello, M. 
 MOLECULAR PHYSICS, 92 (3), 477-487 (1997). 
 A hybrid Gaussian and plane wave density functional scheme.
 https://doi.org/10.1080/002689797170220

 Perdew, JP; Burke, K; Ernzerhof, M. 
 PHYSICAL REVIEW LETTERS, 77 (18), 3865-3868 (1996). 
 Generalized gradient approximation made simple.
 https://doi.org/10.1103/PhysRevLett.77.3865

 Goedecker, S; Teter, M; Hutter, J. 
 PHYSICAL REVIEW B, 54 (3), 1703-1710 (1996). 
 Separable dual-space Gaussian pseudopotentials.
 https://doi.org/10.1103/PhysRevB.54.1703


 -------------------------------------------------------------------------------
 -                                                                             -
 -                                T I M I N G                                  -
 -                                                                             -
 -------------------------------------------------------------------------------
 SUBROUTINE                       CALLS  ASD         SELF TIME        TOTAL TIME
                                MAXIMUM       AVERAGE  MAXIMUM  AVERAGE  MAXIMUM
 CP2K                                 1  1.0     0.12     0.17 65634.27 65634.28
 qs_energies                          5  2.0     0.00     0.00 65630.75 65630.77
 scf_env_do_scf                       5  3.0     0.02     0.03 65614.24 65614.47
 scf_env_do_scf_inner_loop         7421  4.0     0.29     1.43 65614.20 65614.42
 qs_ks_update_qs_env               7421  5.0     0.06     0.06 25566.83 25568.35
 rebuild_ks_matrix                 7421  6.0     0.02     0.03 25561.18 25562.59
 qs_ks_build_kohn_sham_matrix      7421  7.0     0.87     1.05 25561.15 25562.56
 qs_rho_update_rho_low             7426  5.0     0.05     0.06 17238.64 17241.03
 calculate_rho_elec               14852  6.0   100.03   102.72 17238.59 17240.98
 sum_up_and_integrate              7421  8.0   178.71   186.07 14429.90 14431.34
 integrate_v_rspace               14842  9.0     0.35     0.43 14251.14 14257.89
 pw_transfer                     170696  9.0    12.01    14.63 12179.58 12352.58
 qs_scf_new_mos                    7421  5.0     0.15     0.16 12206.24 12214.86
 fft_wrap_pw1pw2                 155854 10.0     1.69     1.93 12015.69 12188.56
 eigensolver                      14842  6.0     0.98     1.28 11734.29 11735.77
 density_rs2pw                    14852  7.0     0.92     0.99  9560.00 11349.88
 fft_wrap_pw1pw2_150              66772 10.2   899.89   932.83 10978.94 11185.10
 gspace_mixing                     7400  5.0    99.93   102.68 10578.39 10578.40
 grid_collocate_task_list         14852  7.0  7463.96 10540.25  7463.96 10540.25
 grid_integrate_task_list         14842 10.0  7498.01  9654.70  7498.01  9654.70
 qs_vxc_create                     7421  8.0     0.15     0.18  9263.20  9309.88
 xc_vxc_pw_create                  7421  9.0   430.48   448.85  9263.05  9309.72
 fft3d_ps                        155854 12.0  5499.27  5684.08  8558.98  8730.86
 cp_fm_diag_elpa                  14458  7.0     0.10     0.11  7915.67  7917.99
 cp_fm_diag_elpa_base             14458  8.0  7857.90  7869.40  7910.65  7910.70
 broyden_mixing                    7400  6.0  7344.72  7361.76  7402.16  7412.53
 xc_rho_set_and_dset_create        7421 10.0   456.57   525.49  6899.58  7093.50
 rs_pw_transfer                  118796  9.5     1.63     1.95  5352.65  7080.36
 mp_waitany                     1247548 11.5  3639.83  5396.34  3639.83  5396.34
 rs_pw_transfer_RS2PW_150         14862  9.0   302.45   330.54  3536.16  5250.77
 xc_functional_eval                7421 11.0     0.10     0.12  4842.90  4998.97
 pbe_lsd_eval                      7421 12.0  4842.80  4998.87  4842.80  4998.87
 potential_pw2rs                  14842 10.0     5.00     5.36  4579.98  4589.37
 mp_alltoall_d11v                207828  9.3  2222.86  4093.71  2222.86  4093.71
 rs_gather_matrices               14842 10.0     8.78    10.31  2172.81  4042.61
 cp_fm_triangular_multiply        44526  7.0  3770.90  3784.55  3770.90  3784.55
 xc_pw_derive                     89052 11.0     0.38     0.44  2637.96  2911.70
 pw_nn_compose_r                  89052 12.0  2278.84  2308.10  2637.58  2911.30
 x_to_yz                          81599 13.3  1271.39  1327.74  1818.83  1890.09
 xc_pw_divergence                 14842 10.0     0.21     0.24  1508.81  1738.34
 yz_to_x                          74255 12.6   808.43   856.64  1237.67  1317.40
 -------------------------------------------------------------------------------

 The number of warnings for this run is : 7
 
 -------------------------------------------------------------------------------
  **** **** ******  **  PROGRAM ENDED AT                 2025-06-04 21:04:54.973
 ***** ** ***  *** **   PROGRAM RAN ON                                sebnode102
 **    ****   ******    PROGRAM RAN BY                                    luehrs
 ***** **    ** ** **   PROGRAM PROCESS ID                                734958
  **** **  *******  **  PROGRAM STOPPED IN /home/luehrs/PhD/Sodium_batteries/Sod
                                           ium-graphene-edge/Zig_zag_1/No-hydrog
                                           en/Sodium
