     113
 i =      124, E =      -679.7456041235
  C         8.6167199150       15.0128427304        0.5755725029
  C         9.8501169927       15.5998665246        0.8809080363
  C        11.0963965074       14.9777683604        0.8038518801
  C        12.3494032268       15.5986224512        0.8872866769
  C        13.5698024873       14.9963151655        0.5556489328
  C        14.7911481807       15.6257966406        0.3261596728
  C        15.9937256256       15.0207982146       -0.0338422069
  C        17.1964086253       15.6111772058       -0.4230122377
  C        18.4275611203       14.9793330910       -0.5766997411
  C        19.6578408200       15.5729163001       -0.8907815391
  C        20.9074417413       14.9634321954       -0.7314796053
  C        22.1574990711       15.5837862041       -0.7807484198
  C        23.3810703868       15.0052029637       -0.4323672849
  C        24.6102967747       15.6375916553       -0.2503328054
  C        25.8219192396       15.0264989548        0.0722046023
  C        27.0382183621       15.6399467258        0.3721811527
  C        25.8191532129       13.5457418738        0.1016540265
  C        23.3695335214       13.5370227516       -0.2300493181
  C        20.9070006030       13.5174719127       -0.4181098853
  C        18.4427844866       13.5218508355       -0.3258162340
  C        15.9967741923       13.5381303139        0.0131855804
  C        14.7751190305       12.8303085592        0.1853984504
  C        13.5541114522       13.5281507876        0.3847089910
  C        12.3205113045       12.8221704880        0.4147675746
  C        11.0905198427       13.5226206889        0.5408719946
  C         9.8562891661       12.8279195986        0.4276241982
  C         8.6235562073       13.5396493409        0.4152725510
  C         7.3963064242       12.8392712488        0.2467004044
  C        24.5920505664       12.8389075103       -0.0303250052
  C        22.1374920857       12.8268355338       -0.2514503257
  C        19.6764540346       12.8174199385       -0.2990001082
  C        17.2208435645       12.8273802487       -0.1187577206
  C        24.5895481471       11.4035184593        0.0242962627
  C        23.3635086296       10.6834983147       -0.0422571598
  C        22.1357923181       11.3962731284       -0.1279221708
  C        20.9081629703       10.6767313166       -0.1175345341
  C        19.6790229224       11.3901700996       -0.1511647012
  C        18.4511478687       10.6752967851       -0.0764178706
  C        17.2240757364       11.3931267225       -0.0415382353
  C        15.9983091577       10.6776543307        0.0521098231
  C        14.7732793588       11.3949992102        0.1490900306
  C        13.5457710215       10.6784781055        0.2112540953
  C        12.3176739310       11.3929643981        0.3054603466
  C        11.0860254496       10.6804049886        0.2870729890
  C         9.8559671440       11.3970077343        0.3189291247
  C         8.6247250715       10.6852664349        0.2408164914
  C         7.3964648792       11.4034032994        0.2081892423
  C         6.1688434417       10.6880925104        0.1115472628
  C         6.1670141870        9.2582342100        0.0634150555
  C         7.3949667667        8.5429581792        0.0676046606
  C         8.6231756705        9.2590907846        0.1547404551
  C         9.8535118490        8.5436821291        0.1231352955
  C        11.0846444924        9.2549769666        0.1868369380
  C        12.3130282136        8.5373590143        0.1148662836
  C        13.5436087284        9.2506477234        0.1355953929
  C        14.7684695771        8.5313701727        0.0543846617
  C        15.9969583008        9.2472665266        0.0384927525
  C        17.2224726984        8.5270306022       -0.0123822530
  C        18.4507843779        9.2452062995       -0.0408351373
  C        19.6794721692        8.5281348347       -0.0521358015
  C        20.9076525338        9.2468900556       -0.0666375112
  C        22.1362747969        8.5303229352       -0.0568971783
  C        23.3623595904        9.2523816744       -0.0321760869
  C        22.1366963579        7.0993450085       -0.0778944485
  C        20.9083561428        6.3823669160       -0.0685015198
  C        19.6793011651        7.0979463589       -0.0486138952
  C        18.4503946529        6.3806759250       -0.0478737097
  C        17.2211404118        7.0958212409       -0.0366785859
  C        15.9910846663        6.3792793855       -0.0704311529
  C        14.7664400226        7.1033421358       -0.0369977264
  C        13.5369123210        6.3955019722       -0.1148892582
  C        12.3111353342        7.1174478681       -0.0350246817
  C        11.0796176501        6.4154308352       -0.1346575269
  C         9.8531540118        7.1270204236       -0.0366136080
  C         8.6263896141        6.4160027804       -0.1476539203
  C         7.3958956009        7.1204330168       -0.0626844779
  C         6.1719565109        6.3989273335       -0.1549729798
  C         4.9421642954        7.1078912506       -0.0934038042
  C         4.9415975784        8.5369625903       -0.0139598594
  C         3.7182276701        6.3846453826       -0.1320562252
  C         3.7221322624        4.9490693420       -0.2200877455
  C         4.9541433798        4.2557136828       -0.3996541758
  C         6.1786935426        4.9795887369       -0.3684507860
  C         7.4108174929        4.3123737795       -0.5975913237
  C         8.6300619803        5.0178454791       -0.4339975358
  C         9.8538404904        4.3266113195       -0.6338991708
  C        11.0763962405        5.0155820692       -0.4122767601
  C        12.2974027174        4.3065699900       -0.5403459718
  C        13.5313497276        4.9746423001       -0.3136670296
  C        14.7548976458        4.2493069191       -0.3312738358
  C        15.9883893822        4.9432728567       -0.1540824691
  C        17.2186109540        4.2381971571       -0.0781223742
  C        18.4514271527        4.9469266910       -0.0353022543
  C        19.6825137440        4.2402864441        0.0201164190
  C        20.9108145721        4.9488456580       -0.0574195257
  C        19.6853847589        2.7747537457        0.1826061551
  C        18.4393559537        2.1278458311        0.2197531206
  C        17.2105376537        2.7590155603       -0.0447015092
  C        15.9773259226        2.1768990319       -0.3142617069
  C        14.7534854472        2.7725836489       -0.5503300637
  C        13.5073668288        2.2537236107       -0.9569663704
  C        12.2940634541        2.9181087502       -0.9853039330
  C        11.0779363979        2.2992281064       -1.4613694500
  C         9.8558475921        2.9875826623       -1.1835362461
  C         8.6402931712        2.3104054412       -1.5257623763
  C         6.1969985256        2.2705927157       -1.0466217132
  C         7.4140265216        2.9288718661       -1.0698271785
  C         4.9575794257        2.7787896067       -0.6144890399
  C         3.7405123307        2.1823819636       -0.3409402684
  C         2.5096004425        2.7639687870       -0.0644867682
  C         2.4954762830        4.2419738081       -0.1221660336
  C         1.2843746678        2.1312241829        0.2216814453
 Na         9.9281933726        0.6854925797       -2.8237294997
