 DBCSR| CPU Multiplication driver                                           BLAS (U)
 DBCSR| Multrec recursion limit                                              512 (U)
 DBCSR| Multiplication stack size                                           1000 (D)
 DBCSR| Maximum elements for images                                    UNLIMITED (U)
 DBCSR| Multiplicative factor virtual images                                   1 (U)
 DBCSR| Use multiplication densification                                       T (D)
 DBCSR| Multiplication size stacks                                             3 (U)
 DBCSR| Use memory pool for CPU allocation                                     F (U)
 DBCSR| Number of 3D layers                                               SINGLE (U)
 DBCSR| Use MPI memory allocation                                              F (U)
 DBCSR| Use RMA algorithm                                                      F (U)
 DBCSR| Use Communication thread                                               T (U)
 DBCSR| Communication thread load                                             87 (D)
 DBCSR| MPI: My process id                                                     0
 DBCSR| MPI: Number of processes                                              16
 DBCSR| OMP: Current number of threads                                         1
 DBCSR| OMP: Max number of threads                                             1
 DBCSR| Split modifier for TAS multiplication algorithm                  1.0E+00 (U)


  **** **** ******  **  PROGRAM STARTED AT               2025-06-10 15:39:44.344
 ***** ** ***  *** **   PROGRAM STARTED ON                            sebnode048
 **    ****   ******    PROGRAM STARTED BY                                luehrs
 ***** **    ** ** **   PROGRAM PROCESS ID                               1104951
  **** **  *******  **  PROGRAM STARTED IN /home/luehrs/PhD/Sodium_batteries/Sod
                                           ium-graphene-edge/Armchair_2/No_hydro
                                           gen

 CP2K| version string:                                       CP2K version 2023.1
 CP2K| source code revision number:                                  git:b888bd8
 CP2K| cp2kflags: omp libint fftw3 libxc elpa parallel scalapack spglib         
 CP2K| is freely available from                            https://www.cp2k.org/
 CP2K| Program compiled at                          Tue Jan 10 19:52:03 UTC 2023
 CP2K| Program compiled on                                            x86-ubc-01
 CP2K| Program compiled for                                Linux-x86_64-gfortran
 CP2K| Data directory path                                       /usr/share/cp2k
 CP2K| Input file name                                        input.armchair.inp

 GLOBAL| Force Environment number                                              1
 GLOBAL| Basis set file name                                      ./BASIS_MOLOPT
 GLOBAL| Potential file name                                    ./GTH_POTENTIALS
 GLOBAL| MM Potential file name                                     MM_POTENTIAL
 GLOBAL| Coordinate file name           ./graphene_armchair_no_hydrogen_relaxed.
 GLOBAL| Method name                                                        CP2K
 GLOBAL| Project name                                 graphene_armchair_BSSE_PBE
 GLOBAL| Run type                                                           BSSE
 GLOBAL| FFT library                                                       FFTW3
 GLOBAL| Diagonalization library                                            ELPA
 GLOBAL| DGEMM library                                                      BLAS
 GLOBAL| Minimum number of eigenvectors for ELPA usage                        16
 GLOBAL| Orthonormality check for eigenvectors                          DISABLED
 GLOBAL| Matrix multiplication library                                 ScaLAPACK
 GLOBAL| All-to-all communication in single precision                          F
 GLOBAL| FFTs using library dependent lengths                                  F
 GLOBAL| Grid backend                                                       AUTO
 GLOBAL| Global print level                                               MEDIUM
 GLOBAL| MPI I/O enabled                                                       T
 GLOBAL| Total number of message passing processes                            16
 GLOBAL| Number of threads for this process                                    1
 GLOBAL| This output is from process                                           0
 GLOBAL| Stack size for threads created by OpenMP (OMP_STACKSIZE)        default
 GLOBAL| CPU model name                Intel(R) Xeon(R) CPU E5-2630 v3 @ 2.40GHz

 MEMORY| system memory details [Kb]
 MEMORY|                        rank 0           min           max       average
 MEMORY| MemTotal             65828916      65828916      65828916      65828916
 MEMORY| MemFree              62749572      62749572      62749572      62749572
 MEMORY| Buffers                251232        251232        251232        251232
 MEMORY| Cached                 653700        653696        653700        653696
 MEMORY| Slab                   287600        287600        287600        287600
 MEMORY| SReclaimable           117008        117008        117008        117008
 MEMORY| MemLikelyFree        63771512      63771508      63771512      63771508


 *** Fundamental physical constants (SI units) ***

 *** Literature: B. J. Mohr and B. N. Taylor,
 ***             CODATA recommended values of the fundamental physical
 ***             constants: 2006, Web Version 5.1
 ***             http://physics.nist.gov/constants

 Speed of light in vacuum [m/s]                             2.99792458000000E+08
 Magnetic constant or permeability of vacuum [N/A**2]       1.25663706143592E-06
 Electric constant or permittivity of vacuum [F/m]          8.85418781762039E-12
 Planck constant (h) [J*s]                                  6.62606896000000E-34
 Planck constant (h-bar) [J*s]                              1.05457162825177E-34
 Elementary charge [C]                                      1.60217648700000E-19
 Electron mass [kg]                                         9.10938215000000E-31
 Electron g factor [ ]                                     -2.00231930436220E+00
 Proton mass [kg]                                           1.67262163700000E-27
 Fine-structure constant                                    7.29735253760000E-03
 Rydberg constant [1/m]                                     1.09737315685270E+07
 Avogadro constant [1/mol]                                  6.02214179000000E+23
 Boltzmann constant [J/K]                                   1.38065040000000E-23
 Atomic mass unit [kg]                                      1.66053878200000E-27
 Bohr radius [m]                                            5.29177208590000E-11

 *** Conversion factors ***

 [u] -> [a.u.]                                              1.82288848426455E+03
 [Angstrom] -> [Bohr] = [a.u.]                              1.88972613288564E+00
 [a.u.] = [Bohr] -> [Angstrom]                              5.29177208590000E-01
 [a.u.] -> [s]                                              2.41888432650478E-17
 [a.u.] -> [fs]                                             2.41888432650478E-02
 [a.u.] -> [J]                                              4.35974393937059E-18
 [a.u.] -> [N]                                              8.23872205491840E-08
 [a.u.] -> [K]                                              3.15774647902944E+05
 [a.u.] -> [kJ/mol]                                         2.62549961709828E+03
 [a.u.] -> [kcal/mol]                                       6.27509468713739E+02
 [a.u.] -> [Pa]                                             2.94210107994716E+13
 [a.u.] -> [bar]                                            2.94210107994716E+08
 [a.u.] -> [atm]                                            2.90362800883016E+08
 [a.u.] -> [eV]                                             2.72113838565563E+01
 [a.u.] -> [Hz]                                             6.57968392072181E+15
 [a.u.] -> [1/cm] (wave numbers)                            2.19474631370540E+05
 [a.u./Bohr**2] -> [1/cm]                                   5.14048714338585E+03
 

 CELL_TOP| Volume [angstrom^3]:                                     15412.800000
 CELL_TOP| Vector a [angstrom    12.844     0.000     0.000   |a| =    12.844000
 CELL_TOP| Vector b [angstrom     0.000    30.000     0.000   |b| =    30.000000
 CELL_TOP| Vector c [angstrom     0.000     0.000    40.000   |c| =    40.000000
 CELL_TOP| Angle (b,c), alpha [degree]:                                90.000000
 CELL_TOP| Angle (a,c), beta  [degree]:                                90.000000
 CELL_TOP| Angle (a,b), gamma [degree]:                                90.000000
 CELL_TOP| Requested initial symmetry:                                 TRICLINIC
 CELL_TOP| Numerically orthorhombic:                                         YES
 CELL_TOP| Periodicity                                                       XYZ

 GENERATE|  Preliminary Number of Bonds generated:                             0
 GENERATE|  Achieved consistency in connectivity generation.

 CELL| Volume [angstrom^3]:                                         15412.800000
 CELL| Vector a [angstrom]:      12.844     0.000     0.000   |a| =    12.844000
 CELL| Vector b [angstrom]:       0.000    30.000     0.000   |b| =    30.000000
 CELL| Vector c [angstrom]:       0.000     0.000    40.000   |c| =    40.000000
 CELL| Angle (b,c), alpha [degree]:                                    90.000000
 CELL| Angle (a,c), beta  [degree]:                                    90.000000
 CELL| Angle (a,b), gamma [degree]:                                    90.000000
 CELL| Requested initial symmetry:                                     TRICLINIC
 CELL| Numerically orthorhombic:                                             YES
 CELL| Periodicity                                                           XYZ

 CELL_REF| Volume [angstrom^3]:                                     15412.800000
 CELL_REF| Vector a [angstrom    12.844     0.000     0.000   |a| =    12.844000
 CELL_REF| Vector b [angstrom     0.000    30.000     0.000   |b| =    30.000000
 CELL_REF| Vector c [angstrom     0.000     0.000    40.000   |c| =    40.000000
 CELL_REF| Angle (b,c), alpha [degree]:                                90.000000
 CELL_REF| Angle (a,c), beta  [degree]:                                90.000000
 CELL_REF| Angle (a,b), gamma [degree]:                                90.000000
 CELL_REF| Requested initial symmetry:                                 TRICLINIC
 CELL_REF| Numerically orthorhombic:                                         YES
 CELL_REF| Periodicity                                                       XYZ

 *******************************************************************************
 *******************************************************************************
 **                                                                           **
 **     #####                         ##              ##                      **
 **    ##   ##            ##          ##              ##                      **
 **   ##     ##                       ##            ######                    **
 **   ##     ##  ##   ##  ##   #####  ##  ##   ####   ##    #####    #####    **
 **   ##     ##  ##   ##  ##  ##      ## ##   ##      ##   ##   ##  ##   ##   **
 **   ##  ## ##  ##   ##  ##  ##      ####     ###    ##   ######   ######    **
 **    ##  ###   ##   ##  ##  ##      ## ##      ##   ##   ##       ##        **
 **     #######   #####   ##   #####  ##  ##  ####    ##    #####   ##        **
 **           ##                                                    ##        **
 **                                                                           **
 **                                                ... make the atoms dance   **
 **                                                                           **
 **            Copyright (C) by CP2K developers group (2000-2022)             **
 **                      J. Chem. Phys. 152, 194103 (2020)                    **
 **                                                                           **
 *******************************************************************************

 DFT| Spin unrestricted (spin-polarized) Kohn-Sham calculation               UKS
 DFT| Multiplicity                                                             1
 DFT| Number of spin states                                                    2
 DFT| Charge                                                                   1
 DFT| Self-interaction correction (SIC)                                       NO
 DFT| Cutoffs: density                                              1.000000E-10
 DFT|          gradient                                             1.000000E-10
 DFT|          tau                                                  1.000000E-10
 DFT|          cutoff_smoothing_range                               0.000000E+00
 DFT| XC density smoothing                                                  NONE
 DFT| XC derivatives                                              SPLINE2_SMOOTH

 FUNCTIONAL| PBE:
 FUNCTIONAL| J.P.Perdew, K.Burke, M.Ernzerhof, Phys. Rev. Letter, vol. 77, n 18,
 FUNCTIONAL|  pp. 3865-3868, (1996){spin polarized}                             

 vdW POTENTIAL|                                                   Pair Potential
 vdW POTENTIAL|          DFT-D3 (Version 3.1)
 vdW POTENTIAL|          Potential Form: S. Grimme et al, JCP 132: 154104 (2010)
 vdW POTENTIAL|          Zero Damping
 vdW POTENTIAL|          Cutoff Radius [Bohr]:                             20.00
 vdW POTENTIAL|          s6 Scaling Factor:                               1.0000
 vdW POTENTIAL|          sr6 Scaling Factor:                              1.2170
 vdW POTENTIAL|          s8 Scaling Factor:                               0.7220
 vdW POTENTIAL|          Cutoff for CN calculation:                   0.1000E-05

 QS| Method:                                                                 GPW
 QS| Density plane wave grid type                        NON-SPHERICAL FULLSPACE
 QS| Number of grid levels:                                                    4
 QS| Density cutoff [a.u.]:                                                250.0
 QS| Multi grid cutoff [a.u.]: 1) grid level                               250.0
 QS|                           2) grid level                                83.3
 QS|                           3) grid level                                27.8
 QS|                           4) grid level                                 9.3
 QS| Grid level progression factor:                                          3.0
 QS| Relative density cutoff [a.u.]:                                        20.0
 QS| Interaction thresholds: eps_pgf_orb:                                1.0E-06
 QS|                         eps_filter_matrix:                          0.0E+00
 QS|                         eps_core_charge:                            1.0E-14
 QS|                         eps_rho_gspace:                             1.0E-12
 QS|                         eps_rho_rspace:                             1.0E-12
 QS|                         eps_gvg_rspace:                             1.0E-06
 QS|                         eps_ppl:                                    1.0E-02
 QS|                         eps_ppnl:                                   1.0E-08


 ATOMIC KIND INFORMATION

  1. Atomic kind: C                                     Number of atoms:      42

     Orbital Basis Set                                        DZVP-MOLOPT-SR-GTH

       Number of orbital shell sets:                                           1
       Number of orbital shells:                                               5
       Number of primitive Cartesian functions:                                5
       Number of Cartesian basis functions:                                   14
       Number of spherical basis functions:                                   13
       Norm type:                                                              2

       Normalised Cartesian orbitals:

                        Set   Shell   Orbital            Exponent    Coefficient

                          1       1    2s                5.605331       0.322515
                                                         2.113016       0.213043
                                                         0.769911      -0.209686
                                                         0.348157      -0.219794
                                                         0.128212      -0.022789

                          1       2    3s                5.605331       0.552234
                                                         2.113016       0.082072
                                                         0.769911       0.007843
                                                         0.348157       0.136893
                                                         0.128212       0.074283

                          1       3    3px               5.605331      -0.703879
                                                         2.113016      -0.642521
                                                         0.769911      -0.374851
                                                         0.348157      -0.139743
                                                         0.128212      -0.027849
                          1       3    3py               5.605331      -0.703879
                                                         2.113016      -0.642521
                                                         0.769911      -0.374851
                                                         0.348157      -0.139743
                                                         0.128212      -0.027849
                          1       3    3pz               5.605331      -0.703879
                                                         2.113016      -0.642521
                                                         0.769911      -0.374851
                                                         0.348157      -0.139743
                                                         0.128212      -0.027849

                          1       4    4px               5.605331      -0.480376
                                                         2.113016      -0.552894
                                                         0.769911      -0.316145
                                                         0.348157       0.210505
                                                         0.128212       0.076095
                          1       4    4py               5.605331      -0.480376
                                                         2.113016      -0.552894
                                                         0.769911      -0.316145
                                                         0.348157       0.210505
                                                         0.128212       0.076095
                          1       4    4pz               5.605331      -0.480376
                                                         2.113016      -0.552894
                                                         0.769911      -0.316145
                                                         0.348157       0.210505
                                                         0.128212       0.076095

                          1       5    4dx2              5.605331       0.640026
                                                         2.113016       0.274300
                                                         0.769911       0.446711
                                                         0.348157       0.028674
                                                         0.128212       0.029790
                          1       5    4dxy              5.605331       1.108557
                                                         2.113016       0.475102
                                                         0.769911       0.773726
                                                         0.348157       0.049666
                                                         0.128212       0.051599
                          1       5    4dxz              5.605331       1.108557
                                                         2.113016       0.475102
                                                         0.769911       0.773726
                                                         0.348157       0.049666
                                                         0.128212       0.051599
                          1       5    4dy2              5.605331       0.640026
                                                         2.113016       0.274300
                                                         0.769911       0.446711
                                                         0.348157       0.028674
                                                         0.128212       0.029790
                          1       5    4dyz              5.605331       1.108557
                                                         2.113016       0.475102
                                                         0.769911       0.773726
                                                         0.348157       0.049666
                                                         0.128212       0.051599
                          1       5    4dz2              5.605331       0.640026
                                                         2.113016       0.274300
                                                         0.769911       0.446711
                                                         0.348157       0.028674
                                                         0.128212       0.029790

       Atomic covalent radius [Angstrom]:                                  0.770

       Atomic van der Waals radius [Angstrom]:                             1.700

     GTH Potential information for                                    GTH-PBE-q4

       Description:                       Goedecker-Teter-Hutter pseudopotential
                                           Goedecker et al., PRB 54, 1703 (1996)
                                          Hartwigsen et al., PRB 58, 3641 (1998)
                                                      Krack, TCA 114, 145 (2005)

       Gaussian exponent of the core charge distribution:               4.364419
       Electronic configuration (s p d ...):                               2   2

       Parameters of the local part of the GTH pseudopotential:

                          rloc        C1          C2          C3          C4
                        0.338471   -8.803674    1.339211

       Parameters of the non-local part of the GTH pseudopotential:

                   l      r(l)      h(i,j,l)

                   0    0.302576    9.622487
                   1    0.291507

  2. Atomic kind: Na                                    Number of atoms:       1

     Orbital Basis Set                                        DZVP-MOLOPT-SR-GTH

       Number of orbital shell sets:                                           1
       Number of orbital shells:                                               5
       Number of primitive Cartesian functions:                                7
       Number of Cartesian basis functions:                                    9
       Number of spherical basis functions:                                    9
       Norm type:                                                              2

       Normalised Cartesian orbitals:

                        Set   Shell   Orbital            Exponent    Coefficient

                          1       1    2s               23.518801       0.288931
                                                        11.135656       0.787174
                                                         4.647814      -0.190850
                                                         1.866708      -0.573823
                                                         0.734684      -0.276866
                                                         0.275673      -0.024211
                                                         0.049895      -0.000019

                          1       2    3s               23.518801       0.039212
                                                        11.135656       0.138585
                                                         4.647814      -0.048916
                                                         1.866708      -0.102378
                                                         0.734684      -0.139633
                                                         0.275673       0.012767
                                                         0.049895       0.077569

                          1       3    4s               23.518801       0.303698
                                                        11.135656      -0.548845
                                                         4.647814       0.534441
                                                         1.866708      -0.220920
                                                         0.734684       0.980584
                                                         0.275673      -0.653367
                                                         0.049895       0.063703

                          1       4    3px              23.518801      -2.919466
                                                        11.135656      -2.855941
                                                         4.647814      -2.579491
                                                         1.866708      -1.208264
                                                         0.734684      -0.321406
                                                         0.275673      -0.035032
                                                         0.049895      -0.000067
                          1       4    3py              23.518801      -2.919466
                                                        11.135656      -2.855941
                                                         4.647814      -2.579491
                                                         1.866708      -1.208264
                                                         0.734684      -0.321406
                                                         0.275673      -0.035032
                                                         0.049895      -0.000067
                          1       4    3pz              23.518801      -2.919466
                                                        11.135656      -2.855941
                                                         4.647814      -2.579491
                                                         1.866708      -1.208264
                                                         0.734684      -0.321406
                                                         0.275673      -0.035032
                                                         0.049895      -0.000067

                          1       5    4px              23.518801      -0.381914
                                                        11.135656      -0.488169
                                                         4.647814      -0.407378
                                                         1.866708      -0.201739
                                                         0.734684      -0.078845
                                                         0.275673       0.043427
                                                         0.049895       0.031563
                          1       5    4py              23.518801      -0.381914
                                                        11.135656      -0.488169
                                                         4.647814      -0.407378
                                                         1.866708      -0.201739
                                                         0.734684      -0.078845
                                                         0.275673       0.043427
                                                         0.049895       0.031563
                          1       5    4pz              23.518801      -0.381914
                                                        11.135656      -0.488169
                                                         4.647814      -0.407378
                                                         1.866708      -0.201739
                                                         0.734684      -0.078845
                                                         0.275673       0.043427
                                                         0.049895       0.031563

       Atomic covalent radius [Angstrom]:                                  1.540

       Atomic van der Waals radius [Angstrom]:                             2.270

     GTH Potential information for                                    GTH-PBE-q9

       Description:                       Goedecker-Teter-Hutter pseudopotential
                                           Goedecker et al., PRB 54, 1703 (1996)
                                          Hartwigsen et al., PRB 58, 3641 (1998)
                                                      Krack, TCA 114, 145 (2005)

       Gaussian exponent of the core charge distribution:               8.937631
       Electronic configuration (s p d ...):                               3   6

       Parameters of the local part of the GTH pseudopotential:

                          rloc        C1          C2          C3          C4
                        0.236523    0.295105   -0.913885

       Parameters of the non-local part of the GTH pseudopotential:

                   l      r(l)      h(i,j,l)

                   0    0.143560   34.601492
                   1    0.129932  -14.277462


 MOLECULE KIND INFORMATION


 All atoms are their own molecule, skipping detailed information


 TOTAL NUMBERS AND MAXIMUM NUMBERS

  Total number of            - Atomic kinds:                                   2
                             - Atoms:                                         43
                             - Shell sets:                                    43
                             - Shells:                                       215
                             - Primitive Cartesian functions:                217
                             - Cartesian basis functions:                    597
                             - Spherical basis functions:                    555

  Maximum angular momentum of- Orbital basis functions:                        2
                             - Local part of the GTH pseudopotential:          2
                             - Non-local part of the GTH pseudopotential:      1


 MODULE QUICKSTEP: ATOMIC COORDINATES IN ANGSTROM

   Atom Kind Element         X             Y             Z       Z(eff)     Mass
      1    1 C     6      0.694560     -1.175500     -0.001080   4.0000  12.0107
      2    1 C     6      0.000000      0.000000      0.000000   4.0000  12.0107
      3    1 C     6      0.604390      1.277760     -0.012280   4.0000  12.0107
      4    1 C     6      0.054290      2.530320     -0.021840   4.0000  12.0107
      5    1 C     6      0.589830      3.791460     -0.069530   4.0000  12.0107
      6    1 C     6     -0.026340      5.060010     -0.096760   4.0000  12.0107
      7    1 C     6      0.662760      6.240110     -0.159280   4.0000  12.0107
      8    1 C     6      2.069120      6.230210     -0.188350   4.0000  12.0107
      9    1 C     6      2.092310      3.785810     -0.095990   4.0000  12.0107
     10    1 C     6      2.802150      2.544270     -0.066540   4.0000  12.0107
     11    1 C     6      2.107440      1.297480     -0.026040   4.0000  12.0107
     12    1 C     6      2.818380      0.054480     -0.009740   4.0000  12.0107
     13    1 C     6      2.103880     -1.155070      0.000460   4.0000  12.0107
     14    1 C     6      2.795710      5.028190     -0.156950   4.0000  12.0107
     15    1 C     6      4.975940      6.214880     -0.241670   4.0000  12.0107
     16    1 C     6      4.265470      5.029770     -0.176540   4.0000  12.0107
     17    1 C     6      4.983090      3.776320     -0.123790   4.0000  12.0107
     18    1 C     6      4.264140      2.557840     -0.078590   4.0000  12.0107
     19    1 C     6      4.987280      1.307110     -0.043640   4.0000  12.0107
     20    1 C     6      4.278880      0.073720     -0.012410   4.0000  12.0107
     21    1 C     6      5.021760     -1.133230      0.008730   4.0000  12.0107
     22    1 C     6      6.396430     -1.140260      0.009300   4.0000  12.0107
     23    1 C     6      7.139000      0.066510     -0.008990   4.0000  12.0107
     24    1 C     6      6.430500      1.307660     -0.042700   4.0000  12.0107
     25    1 C     6      7.158640      2.552530     -0.076820   4.0000  12.0107
     26    1 C     6      6.437040      3.801090     -0.124130   4.0000  12.0107
     27    1 C     6      7.155680      5.034710     -0.165680   4.0000  12.0107
     28    1 C     6      6.399080      6.318960     -0.225640   4.0000  12.0107
     29    1 C     6      9.344700      6.239600     -0.159560   4.0000  12.0107
     30    1 C     6      8.602930      5.025720     -0.143640   4.0000  12.0107
     31    1 C     6      9.309620      3.780570     -0.092940   4.0000  12.0107
     32    1 C     6      8.602260      2.538820     -0.067180   4.0000  12.0107
     33    1 C     6      9.302400      1.282720     -0.031490   4.0000  12.0107
     34    1 C     6      8.592060      0.049580     -0.005400   4.0000  12.0107
     35    1 C     6      9.313020     -1.170640      0.014390   4.0000  12.0107
     36    1 C     6     10.712380     -1.182590      0.015260   4.0000  12.0107
     37    1 C     6     11.417330      0.000000      0.000000   4.0000  12.0107
     38    1 C     6     10.792700      1.267400     -0.026680   4.0000  12.0107
     39    1 C     6     11.360950      2.522490     -0.046120   4.0000  12.0107
     40    1 C     6     10.810620      3.781110     -0.069480   4.0000  12.0107
     41    1 C     6     11.421210      5.049880     -0.079770   4.0000  12.0107
     42    1 C     6     10.745480      6.241010     -0.117860   4.0000  12.0107
     43    2 Na   11      2.086990      6.319710      2.499280   9.0000  22.9898



 SCF PARAMETERS         Density guess:                                    ATOMIC
                        --------------------------------------------------------
                        max_scf:                                             100
                        max_scf_history:                                       0
                        max_diis:                                              4
                        --------------------------------------------------------
                        eps_scf:                                        3.00E-07
                        eps_scf_history:                                0.00E+00
                        eps_diis:                                       1.00E-01
                        eps_eigval:                                     1.00E-05
                        --------------------------------------------------------
                        level_shift [a.u.]:                             0.000000
                        added MOs                                       100  100
                        --------------------------------------------------------
                        Mixing method:                            BROYDEN_MIXING
                                                charge density mixing in g-space
                        --------------------------------------------------------
                        Smear method:                                FERMI_DIRAC
                        Electronic temperature [K]:                        300.0
                        Electronic temperature [a.u.]:                  9.50E-04
                        Accuracy threshold:                             1.00E-10
                        --------------------------------------------------------
                        Outer loop SCF in use 
                        No variables optimised in outer loop
                        eps_scf                                         1.00E-06
                        max_scf                                              150
                        DIIS optimization
                        DIIS buffer length                                     3
                        step_size                                       5.00E-01

 PW_GRID| Information for grid number                                          1
 PW_GRID| Grid distributed over                                    16 processors
 PW_GRID| Real space group dimensions                                    16    1
 PW_GRID| the grid is blocked:                                                NO
 PW_GRID| Cutoff [a.u.]                                                    250.0
 PW_GRID| spherical cutoff:                                                   NO
 PW_GRID|   Bounds   1            -90      89                Points:         180
 PW_GRID|   Bounds   2           -202     202                Points:         405
 PW_GRID|   Bounds   3           -270     269                Points:         540
 PW_GRID| Volume element (a.u.^3)  0.2642E-02     Volume (a.u.^3)    104010.7313
 PW_GRID| Grid span                                                    FULLSPACE
 PW_GRID|   Distribution                         Average         Max         Min
 PW_GRID|   G-Vectors                          2460375.0     2460420     2460240
 PW_GRID|   G-Rays                               13668.8       13669       13668
 PW_GRID|   Real Space Points                  2460375.0     2624400     2405700

 PW_GRID| Information for grid number                                          2
 PW_GRID| Number of the reference grid                                         1
 PW_GRID| Grid distributed over                                    16 processors
 PW_GRID| Real space group dimensions                                    16    1
 PW_GRID| the grid is blocked:                                                NO
 PW_GRID| Cutoff [a.u.]                                                     83.3
 PW_GRID| spherical cutoff:                                                   NO
 PW_GRID|   Bounds   1            -50      49                Points:         100
 PW_GRID|   Bounds   2           -120     119                Points:         240
 PW_GRID|   Bounds   3           -160     159                Points:         320
 PW_GRID| Volume element (a.u.^3)  0.1354E-01     Volume (a.u.^3)    104010.7313
 PW_GRID| Grid span                                                    FULLSPACE
 PW_GRID|   Distribution                         Average         Max         Min
 PW_GRID|   G-Vectors                           480000.0      480400      479600
 PW_GRID|   G-Rays                                4800.0        4804        4796
 PW_GRID|   Real Space Points                   480000.0      537600      460800

 PW_GRID| Information for grid number                                          3
 PW_GRID| Number of the reference grid                                         1
 PW_GRID| Grid distributed over                                    16 processors
 PW_GRID| Real space group dimensions                                    16    1
 PW_GRID| the grid is blocked:                                                NO
 PW_GRID| Cutoff [a.u.]                                                     27.8
 PW_GRID| spherical cutoff:                                                   NO
 PW_GRID|   Bounds   1            -30      29                Points:          60
 PW_GRID|   Bounds   2            -67      67                Points:         135
 PW_GRID|   Bounds   3            -90      89                Points:         180
 PW_GRID| Volume element (a.u.^3)  0.7134E-01     Volume (a.u.^3)    104010.7313
 PW_GRID| Grid span                                                    FULLSPACE
 PW_GRID|   Distribution                         Average         Max         Min
 PW_GRID|   G-Vectors                            91125.0       91260       91020
 PW_GRID|   G-Rays                                1518.8        1521        1517
 PW_GRID|   Real Space Points                    91125.0       97200       72900

 PW_GRID| Information for grid number                                          4
 PW_GRID| Number of the reference grid                                         1
 PW_GRID| Grid distributed over                                    16 processors
 PW_GRID| Real space group dimensions                                    16    1
 PW_GRID| the grid is blocked:                                                NO
 PW_GRID| Cutoff [a.u.]                                                      9.3
 PW_GRID| spherical cutoff:                                                   NO
 PW_GRID|   Bounds   1            -18      17                Points:          36
 PW_GRID|   Bounds   2            -40      39                Points:          80
 PW_GRID|   Bounds   3            -54      53                Points:         108
 PW_GRID| Volume element (a.u.^3)  0.3344         Volume (a.u.^3)    104010.7313
 PW_GRID| Grid span                                                    FULLSPACE
 PW_GRID|   Distribution                         Average         Max         Min
 PW_GRID|   G-Vectors                            19440.0       19548       19332
 PW_GRID|   G-Rays                                 540.0         543         537
 PW_GRID|   Real Space Points                    19440.0       25920       17280

 POISSON| Solver                                                        PERIODIC
 POISSON| Periodicity                                                        XYZ

 RS_GRID| Information for grid number                                          1
 RS_GRID|   Bounds   1            -90      89                Points:         180
 RS_GRID|   Bounds   2           -202     202                Points:         405
 RS_GRID|   Bounds   3           -270     269                Points:         540
 RS_GRID| Real space distribution over                                  4 groups
 RS_GRID| Real space distribution along direction                              2
 RS_GRID| Border size                                                         23
 RS_GRID| Real space distribution over                                  4 groups
 RS_GRID| Real space distribution along direction                              3
 RS_GRID| Border size                                                         23
 RS_GRID|   Distribution                         Average         Max         Min
 RS_GRID|   Planes                                 147.2         148         147
 RS_GRID|   Distribution                         Average         Max         Min
 RS_GRID|   Planes                                 181.0         181         181

 RS_GRID| Information for grid number                                          2
 RS_GRID|   Bounds   1            -50      49                Points:         100
 RS_GRID|   Bounds   2           -120     119                Points:         240
 RS_GRID|   Bounds   3           -160     159                Points:         320
 RS_GRID| Real space distribution over                                  4 groups
 RS_GRID| Real space distribution along direction                              2
 RS_GRID| Border size                                                         22
 RS_GRID| Real space distribution over                                  4 groups
 RS_GRID| Real space distribution along direction                              3
 RS_GRID| Border size                                                         22
 RS_GRID|   Distribution                         Average         Max         Min
 RS_GRID|   Planes                                 104.0         104         104
 RS_GRID|   Distribution                         Average         Max         Min
 RS_GRID|   Planes                                 124.0         124         124

 RS_GRID| Information for grid number                                          3
 RS_GRID|   Bounds   1            -30      29                Points:          60
 RS_GRID|   Bounds   2            -67      67                Points:         135
 RS_GRID|   Bounds   3            -90      89                Points:         180
 RS_GRID| Real space fully replicated
 RS_GRID| Group size                                                           1

 RS_GRID| Information for grid number                                          4
 RS_GRID|   Bounds   1            -18      17                Points:          36
 RS_GRID|   Bounds   2            -40      39                Points:          80
 RS_GRID|   Bounds   3            -54      53                Points:         108
 RS_GRID| Real space fully replicated
 RS_GRID| Group size                                                           1

 -------------------------------------------------------------------------------
 -                                                                             -
 -  BSSE CALCULATION         FRAGMENT CONF: 10        FRAGMENT SUBCONF: 10     -
 -                           CHARGE =     0           MULTIPLICITY =     0     -
 -                                                                             -
 -                 ATOM INDEX                              ATOM NAME           -
 -                 ----------                              ---------           -
 -                      1                                   C                  -
 -                      2                                   C                  -
 -                      3                                   C                  -
 -                      4                                   C                  -
 -                      5                                   C                  -
 -                      6                                   C                  -
 -                      7                                   C                  -
 -                      8                                   C                  -
 -                      9                                   C                  -
 -                     10                                   C                  -
 -                     11                                   C                  -
 -                     12                                   C                  -
 -                     13                                   C                  -
 -                     14                                   C                  -
 -                     15                                   C                  -
 -                     16                                   C                  -
 -                     17                                   C                  -
 -                     18                                   C                  -
 -                     19                                   C                  -
 -                     20                                   C                  -
 -                     21                                   C                  -
 -                     22                                   C                  -
 -                     23                                   C                  -
 -                     24                                   C                  -
 -                     25                                   C                  -
 -                     26                                   C                  -
 -                     27                                   C                  -
 -                     28                                   C                  -
 -                     29                                   C                  -
 -                     30                                   C                  -
 -                     31                                   C                  -
 -                     32                                   C                  -
 -                     33                                   C                  -
 -                     34                                   C                  -
 -                     35                                   C                  -
 -                     36                                   C                  -
 -                     37                                   C                  -
 -                     38                                   C                  -
 -                     39                                   C                  -
 -                     40                                   C                  -
 -                     41                                   C                  -
 -                     42                                   C                  -
 -------------------------------------------------------------------------------

 CELL| Volume [angstrom^3]:                                         15412.800000
 CELL| Vector a [angstrom]:      12.844     0.000     0.000   |a| =    12.844000
 CELL| Vector b [angstrom]:       0.000    30.000     0.000   |b| =    30.000000
 CELL| Vector c [angstrom]:       0.000     0.000    40.000   |c| =    40.000000
 CELL| Angle (b,c), alpha [degree]:                                    90.000000
 CELL| Angle (a,c), beta  [degree]:                                    90.000000
 CELL| Angle (a,b), gamma [degree]:                                    90.000000
 CELL| Requested initial symmetry:                                     TRICLINIC
 CELL| Numerically orthorhombic:                                             YES
 CELL| Periodicity                                                           XYZ

 CELL_REF| Volume [angstrom^3]:                                     15412.800000
 CELL_REF| Vector a [angstrom    12.844     0.000     0.000   |a| =    12.844000
 CELL_REF| Vector b [angstrom     0.000    30.000     0.000   |b| =    30.000000
 CELL_REF| Vector c [angstrom     0.000     0.000    40.000   |c| =    40.000000
 CELL_REF| Angle (b,c), alpha [degree]:                                90.000000
 CELL_REF| Angle (a,c), beta  [degree]:                                90.000000
 CELL_REF| Angle (a,b), gamma [degree]:                                90.000000
 CELL_REF| Requested initial symmetry:                                 TRICLINIC
 CELL_REF| Numerically orthorhombic:                                         YES
 CELL_REF| Periodicity                                                       XYZ

 *******************************************************************************
 *******************************************************************************
 **                                                                           **
 **     #####                         ##              ##                      **
 **    ##   ##            ##          ##              ##                      **
 **   ##     ##                       ##            ######                    **
 **   ##     ##  ##   ##  ##   #####  ##  ##   ####   ##    #####    #####    **
 **   ##     ##  ##   ##  ##  ##      ## ##   ##      ##   ##   ##  ##   ##   **
 **   ##  ## ##  ##   ##  ##  ##      ####     ###    ##   ######   ######    **
 **    ##  ###   ##   ##  ##  ##      ## ##      ##   ##   ##       ##        **
 **     #######   #####   ##   #####  ##  ##  ####    ##    #####   ##        **
 **           ##                                                    ##        **
 **                                                                           **
 **                                                ... make the atoms dance   **
 **                                                                           **
 **            Copyright (C) by CP2K developers group (2000-2022)             **
 **                      J. Chem. Phys. 152, 194103 (2020)                    **
 **                                                                           **
 *******************************************************************************

 DFT| Spin unrestricted (spin-polarized) Kohn-Sham calculation               UKS
 DFT| Multiplicity                                                             1
 DFT| Number of spin states                                                    2
 DFT| Charge                                                                   0
 DFT| Self-interaction correction (SIC)                                       NO
 DFT| Cutoffs: density                                              1.000000E-10
 DFT|          gradient                                             1.000000E-10
 DFT|          tau                                                  1.000000E-10
 DFT|          cutoff_smoothing_range                               0.000000E+00
 DFT| XC density smoothing                                                  NONE
 DFT| XC derivatives                                              SPLINE2_SMOOTH

 FUNCTIONAL| PBE:
 FUNCTIONAL| J.P.Perdew, K.Burke, M.Ernzerhof, Phys. Rev. Letter, vol. 77, n 18,
 FUNCTIONAL|  pp. 3865-3868, (1996){spin polarized}                             

 vdW POTENTIAL|                                                   Pair Potential
 vdW POTENTIAL|          DFT-D3 (Version 3.1)
 vdW POTENTIAL|          Potential Form: S. Grimme et al, JCP 132: 154104 (2010)
 vdW POTENTIAL|          Zero Damping
 vdW POTENTIAL|          Cutoff Radius [Bohr]:                             20.00
 vdW POTENTIAL|          s6 Scaling Factor:                               1.0000
 vdW POTENTIAL|          sr6 Scaling Factor:                              1.2170
 vdW POTENTIAL|          s8 Scaling Factor:                               0.7220
 vdW POTENTIAL|          Cutoff for CN calculation:                   0.1000E-05

 QS| Method:                                                                 GPW
 QS| Density plane wave grid type                        NON-SPHERICAL FULLSPACE
 QS| Number of grid levels:                                                    4
 QS| Density cutoff [a.u.]:                                                250.0
 QS| Multi grid cutoff [a.u.]: 1) grid level                               250.0
 QS|                           2) grid level                                83.3
 QS|                           3) grid level                                27.8
 QS|                           4) grid level                                 9.3
 QS| Grid level progression factor:                                          3.0
 QS| Relative density cutoff [a.u.]:                                        20.0
 QS| Interaction thresholds: eps_pgf_orb:                                1.0E-06
 QS|                         eps_filter_matrix:                          0.0E+00
 QS|                         eps_core_charge:                            1.0E-14
 QS|                         eps_rho_gspace:                             1.0E-12
 QS|                         eps_rho_rspace:                             1.0E-12
 QS|                         eps_gvg_rspace:                             1.0E-06
 QS|                         eps_ppl:                                    1.0E-02
 QS|                         eps_ppnl:                                   1.0E-08


 ATOMIC KIND INFORMATION

  1. Atomic kind: C                                     Number of atoms:      42

     Orbital Basis Set                                        DZVP-MOLOPT-SR-GTH

       Number of orbital shell sets:                                           1
       Number of orbital shells:                                               5
       Number of primitive Cartesian functions:                                5
       Number of Cartesian basis functions:                                   14
       Number of spherical basis functions:                                   13
       Norm type:                                                              2

       Normalised Cartesian orbitals:

                        Set   Shell   Orbital            Exponent    Coefficient

                          1       1    2s                5.605331       0.322515
                                                         2.113016       0.213043
                                                         0.769911      -0.209686
                                                         0.348157      -0.219794
                                                         0.128212      -0.022789

                          1       2    3s                5.605331       0.552234
                                                         2.113016       0.082072
                                                         0.769911       0.007843
                                                         0.348157       0.136893
                                                         0.128212       0.074283

                          1       3    3px               5.605331      -0.703879
                                                         2.113016      -0.642521
                                                         0.769911      -0.374851
                                                         0.348157      -0.139743
                                                         0.128212      -0.027849
                          1       3    3py               5.605331      -0.703879
                                                         2.113016      -0.642521
                                                         0.769911      -0.374851
                                                         0.348157      -0.139743
                                                         0.128212      -0.027849
                          1       3    3pz               5.605331      -0.703879
                                                         2.113016      -0.642521
                                                         0.769911      -0.374851
                                                         0.348157      -0.139743
                                                         0.128212      -0.027849

                          1       4    4px               5.605331      -0.480376
                                                         2.113016      -0.552894
                                                         0.769911      -0.316145
                                                         0.348157       0.210505
                                                         0.128212       0.076095
                          1       4    4py               5.605331      -0.480376
                                                         2.113016      -0.552894
                                                         0.769911      -0.316145
                                                         0.348157       0.210505
                                                         0.128212       0.076095
                          1       4    4pz               5.605331      -0.480376
                                                         2.113016      -0.552894
                                                         0.769911      -0.316145
                                                         0.348157       0.210505
                                                         0.128212       0.076095

                          1       5    4dx2              5.605331       0.640026
                                                         2.113016       0.274300
                                                         0.769911       0.446711
                                                         0.348157       0.028674
                                                         0.128212       0.029790
                          1       5    4dxy              5.605331       1.108557
                                                         2.113016       0.475102
                                                         0.769911       0.773726
                                                         0.348157       0.049666
                                                         0.128212       0.051599
                          1       5    4dxz              5.605331       1.108557
                                                         2.113016       0.475102
                                                         0.769911       0.773726
                                                         0.348157       0.049666
                                                         0.128212       0.051599
                          1       5    4dy2              5.605331       0.640026
                                                         2.113016       0.274300
                                                         0.769911       0.446711
                                                         0.348157       0.028674
                                                         0.128212       0.029790
                          1       5    4dyz              5.605331       1.108557
                                                         2.113016       0.475102
                                                         0.769911       0.773726
                                                         0.348157       0.049666
                                                         0.128212       0.051599
                          1       5    4dz2              5.605331       0.640026
                                                         2.113016       0.274300
                                                         0.769911       0.446711
                                                         0.348157       0.028674
                                                         0.128212       0.029790

       Atomic covalent radius [Angstrom]:                                  0.770

       Atomic van der Waals radius [Angstrom]:                             1.700

     GTH Potential information for                                    GTH-PBE-q4

       Description:                       Goedecker-Teter-Hutter pseudopotential
                                           Goedecker et al., PRB 54, 1703 (1996)
                                          Hartwigsen et al., PRB 58, 3641 (1998)
                                                      Krack, TCA 114, 145 (2005)

       Gaussian exponent of the core charge distribution:               4.364419
       Electronic configuration (s p d ...):                               2   2

       Parameters of the local part of the GTH pseudopotential:

                          rloc        C1          C2          C3          C4
                        0.338471   -8.803674    1.339211

       Parameters of the non-local part of the GTH pseudopotential:

                   l      r(l)      h(i,j,l)

                   0    0.302576    9.622487
                   1    0.291507


 MOLECULE KIND INFORMATION


 All atoms are their own molecule, skipping detailed information


 TOTAL NUMBERS AND MAXIMUM NUMBERS

  Total number of            - Atomic kinds:                                   1
                             - Atoms:                                         42
                             - Shell sets:                                    42
                             - Shells:                                       210
                             - Primitive Cartesian functions:                210
                             - Cartesian basis functions:                    588
                             - Spherical basis functions:                    546

  Maximum angular momentum of- Orbital basis functions:                        2
                             - Local part of the GTH pseudopotential:          2
                             - Non-local part of the GTH pseudopotential:      0


 MODULE QUICKSTEP: ATOMIC COORDINATES IN ANGSTROM

   Atom Kind Element         X             Y             Z       Z(eff)     Mass
      1    1 C     6      0.694560     -1.175500     -0.001080   4.0000  12.0107
      2    1 C     6      0.000000      0.000000      0.000000   4.0000  12.0107
      3    1 C     6      0.604390      1.277760     -0.012280   4.0000  12.0107
      4    1 C     6      0.054290      2.530320     -0.021840   4.0000  12.0107
      5    1 C     6      0.589830      3.791460     -0.069530   4.0000  12.0107
      6    1 C     6     -0.026340      5.060010     -0.096760   4.0000  12.0107
      7    1 C     6      0.662760      6.240110     -0.159280   4.0000  12.0107
      8    1 C     6      2.069120      6.230210     -0.188350   4.0000  12.0107
      9    1 C     6      2.092310      3.785810     -0.095990   4.0000  12.0107
     10    1 C     6      2.802150      2.544270     -0.066540   4.0000  12.0107
     11    1 C     6      2.107440      1.297480     -0.026040   4.0000  12.0107
     12    1 C     6      2.818380      0.054480     -0.009740   4.0000  12.0107
     13    1 C     6      2.103880     -1.155070      0.000460   4.0000  12.0107
     14    1 C     6      2.795710      5.028190     -0.156950   4.0000  12.0107
     15    1 C     6      4.975940      6.214880     -0.241670   4.0000  12.0107
     16    1 C     6      4.265470      5.029770     -0.176540   4.0000  12.0107
     17    1 C     6      4.983090      3.776320     -0.123790   4.0000  12.0107
     18    1 C     6      4.264140      2.557840     -0.078590   4.0000  12.0107
     19    1 C     6      4.987280      1.307110     -0.043640   4.0000  12.0107
     20    1 C     6      4.278880      0.073720     -0.012410   4.0000  12.0107
     21    1 C     6      5.021760     -1.133230      0.008730   4.0000  12.0107
     22    1 C     6      6.396430     -1.140260      0.009300   4.0000  12.0107
     23    1 C     6      7.139000      0.066510     -0.008990   4.0000  12.0107
     24    1 C     6      6.430500      1.307660     -0.042700   4.0000  12.0107
     25    1 C     6      7.158640      2.552530     -0.076820   4.0000  12.0107
     26    1 C     6      6.437040      3.801090     -0.124130   4.0000  12.0107
     27    1 C     6      7.155680      5.034710     -0.165680   4.0000  12.0107
     28    1 C     6      6.399080      6.318960     -0.225640   4.0000  12.0107
     29    1 C     6      9.344700      6.239600     -0.159560   4.0000  12.0107
     30    1 C     6      8.602930      5.025720     -0.143640   4.0000  12.0107
     31    1 C     6      9.309620      3.780570     -0.092940   4.0000  12.0107
     32    1 C     6      8.602260      2.538820     -0.067180   4.0000  12.0107
     33    1 C     6      9.302400      1.282720     -0.031490   4.0000  12.0107
     34    1 C     6      8.592060      0.049580     -0.005400   4.0000  12.0107
     35    1 C     6      9.313020     -1.170640      0.014390   4.0000  12.0107
     36    1 C     6     10.712380     -1.182590      0.015260   4.0000  12.0107
     37    1 C     6     11.417330      0.000000      0.000000   4.0000  12.0107
     38    1 C     6     10.792700      1.267400     -0.026680   4.0000  12.0107
     39    1 C     6     11.360950      2.522490     -0.046120   4.0000  12.0107
     40    1 C     6     10.810620      3.781110     -0.069480   4.0000  12.0107
     41    1 C     6     11.421210      5.049880     -0.079770   4.0000  12.0107
     42    1 C     6     10.745480      6.241010     -0.117860   4.0000  12.0107



 SCF PARAMETERS         Density guess:                                    ATOMIC
                        --------------------------------------------------------
                        max_scf:                                             100
                        max_scf_history:                                       0
                        max_diis:                                              4
                        --------------------------------------------------------
                        eps_scf:                                        3.00E-07
                        eps_scf_history:                                0.00E+00
                        eps_diis:                                       1.00E-01
                        eps_eigval:                                     1.00E-05
                        --------------------------------------------------------
                        level_shift [a.u.]:                             0.000000
                        added MOs                                       100  100
                        --------------------------------------------------------
                        Mixing method:                            BROYDEN_MIXING
                                                charge density mixing in g-space
                        --------------------------------------------------------
                        Smear method:                                FERMI_DIRAC
                        Electronic temperature [K]:                        300.0
                        Electronic temperature [a.u.]:                  9.50E-04
                        Accuracy threshold:                             1.00E-10
                        --------------------------------------------------------
                        Outer loop SCF in use 
                        No variables optimised in outer loop
                        eps_scf                                         1.00E-06
                        max_scf                                              150
                        DIIS optimization
                        DIIS buffer length                                     3
                        step_size                                       5.00E-01

 PW_GRID| Information for grid number                                          5
 PW_GRID| Grid distributed over                                    16 processors
 PW_GRID| Real space group dimensions                                    16    1
 PW_GRID| the grid is blocked:                                                NO
 PW_GRID| Cutoff [a.u.]                                                    250.0
 PW_GRID| spherical cutoff:                                                   NO
 PW_GRID|   Bounds   1            -90      89                Points:         180
 PW_GRID|   Bounds   2           -202     202                Points:         405
 PW_GRID|   Bounds   3           -270     269                Points:         540
 PW_GRID| Volume element (a.u.^3)  0.2642E-02     Volume (a.u.^3)    104010.7313
 PW_GRID| Grid span                                                    FULLSPACE
 PW_GRID|   Distribution                         Average         Max         Min
 PW_GRID|   G-Vectors                          2460375.0     2460420     2460240
 PW_GRID|   G-Rays                               13668.8       13669       13668
 PW_GRID|   Real Space Points                  2460375.0     2624400     2405700

 PW_GRID| Information for grid number                                          6
 PW_GRID| Number of the reference grid                                         5
 PW_GRID| Grid distributed over                                    16 processors
 PW_GRID| Real space group dimensions                                    16    1
 PW_GRID| the grid is blocked:                                                NO
 PW_GRID| Cutoff [a.u.]                                                     83.3
 PW_GRID| spherical cutoff:                                                   NO
 PW_GRID|   Bounds   1            -50      49                Points:         100
 PW_GRID|   Bounds   2           -120     119                Points:         240
 PW_GRID|   Bounds   3           -160     159                Points:         320
 PW_GRID| Volume element (a.u.^3)  0.1354E-01     Volume (a.u.^3)    104010.7313
 PW_GRID| Grid span                                                    FULLSPACE
 PW_GRID|   Distribution                         Average         Max         Min
 PW_GRID|   G-Vectors                           480000.0      480400      479600
 PW_GRID|   G-Rays                                4800.0        4804        4796
 PW_GRID|   Real Space Points                   480000.0      537600      460800

 PW_GRID| Information for grid number                                          7
 PW_GRID| Number of the reference grid                                         5
 PW_GRID| Grid distributed over                                    16 processors
 PW_GRID| Real space group dimensions                                    16    1
 PW_GRID| the grid is blocked:                                                NO
 PW_GRID| Cutoff [a.u.]                                                     27.8
 PW_GRID| spherical cutoff:                                                   NO
 PW_GRID|   Bounds   1            -30      29                Points:          60
 PW_GRID|   Bounds   2            -67      67                Points:         135
 PW_GRID|   Bounds   3            -90      89                Points:         180
 PW_GRID| Volume element (a.u.^3)  0.7134E-01     Volume (a.u.^3)    104010.7313
 PW_GRID| Grid span                                                    FULLSPACE
 PW_GRID|   Distribution                         Average         Max         Min
 PW_GRID|   G-Vectors                            91125.0       91260       91020
 PW_GRID|   G-Rays                                1518.8        1521        1517
 PW_GRID|   Real Space Points                    91125.0       97200       72900

 PW_GRID| Information for grid number                                          8
 PW_GRID| Number of the reference grid                                         5
 PW_GRID| Grid distributed over                                    16 processors
 PW_GRID| Real space group dimensions                                    16    1
 PW_GRID| the grid is blocked:                                                NO
 PW_GRID| Cutoff [a.u.]                                                      9.3
 PW_GRID| spherical cutoff:                                                   NO
 PW_GRID|   Bounds   1            -18      17                Points:          36
 PW_GRID|   Bounds   2            -40      39                Points:          80
 PW_GRID|   Bounds   3            -54      53                Points:         108
 PW_GRID| Volume element (a.u.^3)  0.3344         Volume (a.u.^3)    104010.7313
 PW_GRID| Grid span                                                    FULLSPACE
 PW_GRID|   Distribution                         Average         Max         Min
 PW_GRID|   G-Vectors                            19440.0       19548       19332
 PW_GRID|   G-Rays                                 540.0         543         537
 PW_GRID|   Real Space Points                    19440.0       25920       17280

 POISSON| Solver                                                        PERIODIC
 POISSON| Periodicity                                                        XYZ

 RS_GRID| Information for grid number                                          5
 RS_GRID|   Bounds   1            -90      89                Points:         180
 RS_GRID|   Bounds   2           -202     202                Points:         405
 RS_GRID|   Bounds   3           -270     269                Points:         540
 RS_GRID| Real space distribution over                                  4 groups
 RS_GRID| Real space distribution along direction                              2
 RS_GRID| Border size                                                         23
 RS_GRID| Real space distribution over                                  4 groups
 RS_GRID| Real space distribution along direction                              3
 RS_GRID| Border size                                                         23
 RS_GRID|   Distribution                         Average         Max         Min
 RS_GRID|   Planes                                 147.2         148         147
 RS_GRID|   Distribution                         Average         Max         Min
 RS_GRID|   Planes                                 181.0         181         181

 RS_GRID| Information for grid number                                          6
 RS_GRID|   Bounds   1            -50      49                Points:         100
 RS_GRID|   Bounds   2           -120     119                Points:         240
 RS_GRID|   Bounds   3           -160     159                Points:         320
 RS_GRID| Real space distribution over                                  4 groups
 RS_GRID| Real space distribution along direction                              2
 RS_GRID| Border size                                                         22
 RS_GRID| Real space distribution over                                  4 groups
 RS_GRID| Real space distribution along direction                              3
 RS_GRID| Border size                                                         22
 RS_GRID|   Distribution                         Average         Max         Min
 RS_GRID|   Planes                                 104.0         104         104
 RS_GRID|   Distribution                         Average         Max         Min
 RS_GRID|   Planes                                 124.0         124         124

 RS_GRID| Information for grid number                                          7
 RS_GRID|   Bounds   1            -30      29                Points:          60
 RS_GRID|   Bounds   2            -67      67                Points:         135
 RS_GRID|   Bounds   3            -90      89                Points:         180
 RS_GRID| Real space fully replicated
 RS_GRID| Group size                                                           1

 RS_GRID| Information for grid number                                          8
 RS_GRID|   Bounds   1            -18      17                Points:          36
 RS_GRID|   Bounds   2            -40      39                Points:          80
 RS_GRID|   Bounds   3            -54      53                Points:         108
 RS_GRID| Real space fully replicated
 RS_GRID| Group size                                                           1

 Spin 1

 Number of electrons:                                                         84
 Number of occupied orbitals:                                                 84
 Number of molecular orbitals:                                               184

 Spin 2

 Number of electrons:                                                         84
 Number of occupied orbitals:                                                 84
 Number of molecular orbitals:                                               184

 Number of orbital functions:                                                546
 Number of independent orbital functions:                                    546

 Extrapolation method: initial_guess

 Atomic guess: The first density matrix is obtained in terms of atomic orbitals
               and electronic configurations assigned to each atomic kind

 Guess for atomic kind: C

 Electronic structure
    Total number of core electrons                                          2.00
    Total number of valence electrons                                       4.00
    Total number of electrons                                               6.00
    Multiplicity                                                   not specified
    S   [  2.00] 2.00
    P      2.00


[...]
    15 Broy./Diag. 0.10E+00   13.3     0.00753350      -284.9594013801  1.66E-02
    16 Broy./Diag. 0.10E+00   13.3     0.01533205      -284.9628266097 -3.43E-03
    17 Broy./Diag. 0.10E+00   13.3     0.00454018      -284.9557275756  7.10E-03
    18 Broy./Diag. 0.10E+00   13.3     0.01405646      -284.9663317338 -1.06E-02
    19 Broy./Diag. 0.10E+00   13.2     0.01270746      -284.9920279166 -2.57E-02
    20 Broy./Diag. 0.10E+00   13.3     0.02330476      -284.9986893877 -6.66E-03
    21 Broy./Diag. 0.10E+00   13.2     0.00243170      -285.0115930492 -1.29E-02
    22 Broy./Diag. 0.10E+00   13.3     0.01018225      -285.0019716845  9.62E-03
    23 Broy./Diag. 0.10E+00   13.2     0.00915849      -284.9892235098  1.27E-02
    24 Broy./Diag. 0.10E+00   13.3     0.01853650      -284.9784770203  1.07E-02
    25 Broy./Diag. 0.10E+00   13.2     0.00778802      -285.0144409939 -3.60E-02
    26 Broy./Diag. 0.10E+00   13.2     0.01160101      -285.0111539503  3.29E-03
    27 Broy./Diag. 0.10E+00   13.2     0.02527578      -285.0263712338 -1.52E-02
    28 Broy./Diag. 0.10E+00   13.2     0.02505978      -285.0060599930  2.03E-02
    29 Broy./Diag. 0.10E+00   13.3     0.01377051      -285.0274932696 -2.14E-02
    30 Broy./Diag. 0.10E+00   13.2     0.01869888      -285.0061823986  2.13E-02
    31 Broy./Diag. 0.10E+00   13.2     0.05602322      -284.9973197480  8.86E-03
    32 Broy./Diag. 0.10E+00   13.3     0.00632612      -285.0336523862 -3.63E-02
    33 Broy./Diag. 0.10E+00   13.2     0.02266387      -285.0400601673 -6.41E-03
    34 Broy./Diag. 0.10E+00   13.2     0.05041168      -285.0621425242 -2.21E-02
    35 Broy./Diag. 0.10E+00   13.2     0.03386166      -285.0352596339  2.69E-02
    36 Broy./Diag. 0.10E+00   13.2     0.02581466      -285.0367452374 -1.49E-03
    37 Broy./Diag. 0.10E+00   13.2     0.01073069      -285.0359381987  8.07E-04
    38 Broy./Diag. 0.10E+00   13.3     0.01071485      -285.0432587619 -7.32E-03
    39 Broy./Diag. 0.10E+00   13.3     0.05042700      -285.0387434886  4.52E-03
    40 Broy./Diag. 0.10E+00   13.3     0.04519420      -285.0576797454 -1.89E-02
    41 Broy./Diag. 0.10E+00   13.3     0.01584466      -285.0608949891 -3.22E-03
    42 Broy./Diag. 0.10E+00   13.2     0.01524749      -285.0627442249 -1.85E-03
    43 Broy./Diag. 0.10E+00   13.3     0.00697381      -285.0526704243  1.01E-02
    44 Broy./Diag. 0.10E+00   13.3     0.00282056      -285.0510429857  1.63E-03
    45 Broy./Diag. 0.10E+00   13.3     0.01286209      -285.0574610774 -6.42E-03
    46 Broy./Diag. 0.10E+00   13.3     0.01724452      -285.0362522590  2.12E-02
    47 Broy./Diag. 0.10E+00   13.2     0.00841337      -285.0447539866 -8.50E-03
    48 Broy./Diag. 0.10E+00   13.3     0.02596730      -285.0573575068 -1.26E-02
    49 Broy./Diag. 0.10E+00   13.2     0.01205773      -285.0453287359  1.20E-02
    50 Broy./Diag. 0.10E+00   13.3     0.02573494      -285.0288144424  1.65E-02
    51 Broy./Diag. 0.10E+00   13.3     0.01111036      -285.0502367236 -2.14E-02
    52 Broy./Diag. 0.10E+00   13.2     0.01058286      -285.0478490827  2.39E-03
    53 Broy./Diag. 0.10E+00   13.3     0.01438289      -285.0583847824 -1.05E-02
    54 Broy./Diag. 0.10E+00   13.3     0.01758658      -285.0541418858  4.24E-03
    55 Broy./Diag. 0.10E+00   13.3     0.05454006      -285.0412105165  1.29E-02
    56 Broy./Diag. 0.10E+00   13.2     0.03503189      -285.0536847903 -1.25E-02
    57 Broy./Diag. 0.10E+00   13.3     0.05050539      -285.0539150060 -2.30E-04
    58 Broy./Diag. 0.10E+00   13.3     0.00865780      -285.0406740154  1.32E-02
    59 Broy./Diag. 0.10E+00   13.3     0.05020900      -285.0350257121  5.65E-03
    60 Broy./Diag. 0.10E+00   13.2     0.03533544      -284.9897136165  4.53E-02
    61 Broy./Diag. 0.10E+00   13.2     0.03415020      -284.9706016290  1.91E-02
    62 Broy./Diag. 0.10E+00   13.2     0.02178153      -284.9960597616 -2.55E-02
    63 Broy./Diag. 0.10E+00   13.2     0.00761396      -284.9687992795  2.73E-02
    64 Broy./Diag. 0.10E+00   13.2     0.01438384      -284.9572188304  1.16E-02
    65 Broy./Diag. 0.10E+00   13.2     0.02627392      -284.9705907159 -1.34E-02
    66 Broy./Diag. 0.10E+00   13.2     0.01706792      -284.9621525892  8.44E-03
    67 Broy./Diag. 0.10E+00   13.2     0.01397347      -284.9380940498  2.41E-02
    68 Broy./Diag. 0.10E+00   13.2     0.01745799      -284.9311268495  6.97E-03
    69 Broy./Diag. 0.10E+00   13.2     0.00870283      -284.9286378425  2.49E-03
    70 Broy./Diag. 0.10E+00   13.2     0.02851098      -284.9267546686  1.88E-03
    71 Broy./Diag. 0.10E+00   13.2     0.01061099      -284.9405036159 -1.37E-02
    72 Broy./Diag. 0.10E+00   13.2     0.04090179      -284.9518317101 -1.13E-02
    73 Broy./Diag. 0.10E+00   13.3     0.18792474      -284.9917876625 -4.00E-02
    74 Broy./Diag. 0.10E+00   13.3     0.14773516      -285.0030235599 -1.12E-02
    75 Broy./Diag. 0.10E+00   13.2     0.01009651      -285.0542556149 -5.12E-02
    76 Broy./Diag. 0.10E+00   13.2     0.04208864      -285.0564541563 -2.20E-03
    77 Broy./Diag. 0.10E+00   13.2     0.02646051      -285.0416265764  1.48E-02
    78 Broy./Diag. 0.10E+00   13.3     0.00235361      -285.0443226698 -2.70E-03
    79 Broy./Diag. 0.10E+00   13.3     0.00821783      -285.0445143925 -1.92E-04
    80 Broy./Diag. 0.10E+00   13.3     0.01298304      -285.0446449433 -1.31E-04
    81 Broy./Diag. 0.10E+00   13.2     0.02064294      -285.0746211411 -3.00E-02
    82 Broy./Diag. 0.10E+00   13.3     0.00726279      -285.0533949539  2.12E-02
    83 Broy./Diag. 0.10E+00   13.3     0.01521881      -285.0392114877  1.42E-02
    84 Broy./Diag. 0.10E+00   13.2     0.02585270      -285.0614551985 -2.22E-02
    85 Broy./Diag. 0.10E+00   13.3     0.01083588      -285.0696559406 -8.20E-03
    86 Broy./Diag. 0.10E+00   13.3     0.07955139      -285.0546787594  1.50E-02
    87 Broy./Diag. 0.10E+00   13.3     0.04454617      -285.0736541442 -1.90E-02
    88 Broy./Diag. 0.10E+00   13.3     0.01278891      -285.0436116297  3.00E-02
    89 Broy./Diag. 0.10E+00   13.3     0.01117751      -285.0561763189 -1.26E-02
    90 Broy./Diag. 0.10E+00   13.3     0.01229262      -285.0554264781  7.50E-04
    91 Broy./Diag. 0.10E+00   13.2     0.02409315      -285.0603943435 -4.97E-03
    92 Broy./Diag. 0.10E+00   13.2     0.01415193      -285.0475888771  1.28E-02
    93 Broy./Diag. 0.10E+00   13.3     0.00879776      -285.0533283885 -5.74E-03
    94 Broy./Diag. 0.10E+00   13.2     0.01959984      -285.0561412533 -2.81E-03
    95 Broy./Diag. 0.10E+00   13.3     0.00779428      -285.0546930804  1.45E-03
    96 Broy./Diag. 0.10E+00   13.3     0.02304704      -285.0474062377  7.29E-03
    97 Broy./Diag. 0.10E+00   13.3     0.00927140      -285.0538173500 -6.41E-03
    98 Broy./Diag. 0.10E+00   13.2     0.02149865      -285.0462592884  7.56E-03
    99 Broy./Diag. 0.10E+00   13.3     0.01275036      -285.0172117553  2.90E-02
   100 Broy./Diag. 0.10E+00   13.3     0.00882406      -285.0006086669  1.66E-02

  Leaving inner SCF loop after reaching   100 steps.


  Electronic density on regular grids:       -177.0000012826       -0.0000012826
  Core density on regular grids:              176.9999999999       -0.0000000001
  Total charge density on r-space grids:       -0.0000012827
  Total charge density g-space grids:          -0.0000012827

  Overlap energy of the core charge distribution:               0.00000836868231
  Self energy of the core charge distribution:               -656.67682311856515
  Core Hamiltonian energy:                                    203.26288015950641
  Hartree energy:                                             248.03783582368155
  Exchange-correlation energy:                                -79.58221543766959
  Dispersion energy:                                           -0.04068283049687
  Electronic entropic energy:                                  -0.00158573514533
  Fermi energy:                                                -0.14750635210560

  Total energy:                                              -285.00060866690899

  outer SCF iter =  124 RMS gradient =   0.88E-02 energy =       -285.0006086669
     1 Broy./Diag. 0.10E+00   19.7     0.29219290      -284.9822206925  1.84E-02
     2 Broy./Diag. 0.10E+00   13.3     0.28914202      -285.3839886255 -4.02E-01
     3 Broy./Diag. 0.10E+00   13.2     0.06037601      -284.9829730869  4.01E-01
     4 Broy./Diag. 0.10E+00   13.3     0.06442111      -284.9795855996  3.39E-03
     5 Broy./Diag. 0.10E+00   13.2     0.00697550      -284.9918675225 -1.23E-02
     6 Broy./Diag. 0.10E+00   13.2     0.02409347      -285.0014474474 -9.58E-03
     7 Broy./Diag. 0.10E+00   13.3     0.08014387      -285.0085807668 -7.13E-03
     8 Broy./Diag. 0.10E+00   13.3     0.03475758      -285.0045923457  3.99E-03
     9 Broy./Diag. 0.10E+00   13.3     0.06010701      -285.0119893400 -7.40E-03
    10 Broy./Diag. 0.10E+00   13.2     0.01452701      -285.0253625992 -1.34E-02
    11 Broy./Diag. 0.10E+00   13.3     0.03935826      -285.0339044119 -8.54E-03
    12 Broy./Diag. 0.10E+00   13.2     0.04705600      -285.0357840473 -1.88E-03
    13 Broy./Diag. 0.10E+00   13.3     0.04073032      -284.9877198604  4.81E-02
    14 Broy./Diag. 0.10E+00   13.3     0.01403462      -284.9988681950 -1.11E-02
    15 Broy./Diag. 0.10E+00   13.3     0.02304908      -285.0194957432 -2.06E-02
    16 Broy./Diag. 0.10E+00   13.2     0.05880673      -285.0310915111 -1.16E-02
    17 Broy./Diag. 0.10E+00   13.3     0.00461066      -285.0197043051  1.14E-02
    18 Broy./Diag. 0.10E+00   13.3     0.06490414      -285.0149068170  4.80E-03
    19 Broy./Diag. 0.10E+00   13.2     0.00788891      -285.0340953670 -1.92E-02
    20 Broy./Diag. 0.10E+00   13.2     0.00670273      -285.0225993017  1.15E-02
    21 Broy./Diag. 0.10E+00   13.3     0.02148641      -285.0090899754  1.35E-02
    22 Broy./Diag. 0.10E+00   13.2     0.01763468      -285.0040593363  5.03E-03
    23 Broy./Diag. 0.10E+00   13.2     0.00526100      -284.9801408732  2.39E-02
    24 Broy./Diag. 0.10E+00   13.3     0.00346887      -284.9740124694  6.13E-03
    25 Broy./Diag. 0.10E+00   13.2     0.04533465      -284.9612693942  1.27E-02
    26 Broy./Diag. 0.10E+00   13.2     0.05710696      -284.9519460588  9.32E-03
    27 Broy./Diag. 0.10E+00   13.2     0.00431415      -284.9948756626 -4.29E-02
    28 Broy./Diag. 0.10E+00   13.2     0.01307454      -284.9795253824  1.54E-02
    29 Broy./Diag. 0.10E+00   13.2     0.00974869      -284.9365889907  4.29E-02
    30 Broy./Diag. 0.10E+00   13.2     0.02273703      -284.9348425124  1.75E-03
    31 Broy./Diag. 0.10E+00   13.2     0.03119694      -284.9774247530 -4.26E-02
    32 Broy./Diag. 0.10E+00   13.2     0.01944608      -285.0356094541 -5.82E-02
    33 Broy./Diag. 0.10E+00   13.2     0.01805410      -285.0534903307 -1.79E-02
    34 Broy./Diag. 0.10E+00   13.2     0.04581437      -285.0311494358  2.23E-02
    35 Broy./Diag. 0.10E+00   13.2     0.04862328      -285.0504300384 -1.93E-02
    36 Broy./Diag. 0.10E+00   13.2     0.02489042      -285.0687812730 -1.84E-02
    37 Broy./Diag. 0.10E+00   13.2     0.12073300      -285.1791745439 -1.10E-01
    38 Broy./Diag. 0.10E+00   13.2     0.05605268      -285.1880480519 -8.87E-03
    39 Broy./Diag. 0.10E+00   13.2     0.05295970      -285.1152513707  7.28E-02
    40 Broy./Diag. 0.10E+00   13.2     0.04256138      -285.0908036402  2.44E-02
    41 Broy./Diag. 0.10E+00   13.3     0.09630404      -285.1025462534 -1.17E-02
    42 Broy./Diag. 0.10E+00   13.3     0.03534493      -285.0671034125  3.54E-02
    43 Broy./Diag. 0.10E+00   13.3     0.02978703      -285.0273719973  3.97E-02
    44 Broy./Diag. 0.10E+00   13.2     0.00586783      -285.0739281574 -4.66E-02
    45 Broy./Diag. 0.10E+00   13.2     0.02139538      -285.0895393983 -1.56E-02
    46 Broy./Diag. 0.10E+00   13.2     0.06527750      -285.0448914782  4.46E-02
    47 Broy./Diag. 0.10E+00   13.2     0.00876391      -285.0939433002 -4.91E-02
    48 Broy./Diag. 0.10E+00   13.2     0.06105146      -285.0728362500  2.11E-02
    49 Broy./Diag. 0.10E+00   13.3     0.03084184      -285.0932808924 -2.04E-02
    50 Broy./Diag. 0.10E+00   13.2     0.03040717      -285.0791378864  1.41E-02
    51 Broy./Diag. 0.10E+00   13.2     0.02653276      -285.0590085147  2.01E-02
    52 Broy./Diag. 0.10E+00   13.2     0.00744728      -285.0921045339 -3.31E-02
    53 Broy./Diag. 0.10E+00   13.2     0.03230460      -285.0858591299  6.25E-03
    54 Broy./Diag. 0.10E+00   13.2     0.04910688      -285.0811210956  4.74E-03
    55 Broy./Diag. 0.10E+00   13.2     0.03627496      -285.1003543245 -1.92E-02
    56 Broy./Diag. 0.10E+00   13.2     0.05044782      -285.1124626728 -1.21E-02
    57 Broy./Diag. 0.10E+00   13.2     0.02809742      -285.0947819992  1.77E-02
    58 Broy./Diag. 0.10E+00   13.2     0.05366889      -285.1130600082 -1.83E-02
    59 Broy./Diag. 0.10E+00   13.2     0.04148479      -285.0644664466  4.86E-02
    60 Broy./Diag. 0.10E+00   13.2     0.01659355      -285.0812735581 -1.68E-02
    61 Broy./Diag. 0.10E+00   13.2     0.01091063      -285.0675523929  1.37E-02
    62 Broy./Diag. 0.10E+00   13.3     0.06670031      -285.0610339777  6.52E-03
    63 Broy./Diag. 0.10E+00   13.3     0.01546707      -285.0321455597  2.89E-02
    64 Broy./Diag. 0.10E+00   13.3     0.03969231      -285.0099402607  2.22E-02
    65 Broy./Diag. 0.10E+00   13.3     0.06062904      -284.9920474733  1.79E-02
    66 Broy./Diag. 0.10E+00   13.3     0.05603178      -284.9846637524  7.38E-03
    67 Broy./Diag. 0.10E+00   13.3     0.03130018      -284.9973768955 -1.27E-02
    68 Broy./Diag. 0.10E+00   13.2     0.01749124      -284.9983083765 -9.31E-04
    69 Broy./Diag. 0.10E+00   13.3     0.00988617      -285.0231239346 -2.48E-02
    70 Broy./Diag. 0.10E+00   13.3     0.00959418      -285.0434369108 -2.03E-02
    71 Broy./Diag. 0.10E+00   13.3     0.00868621      -285.0326320844  1.08E-02
    72 Broy./Diag. 0.10E+00   13.3     0.00310495      -285.0217807223  1.09E-02
    73 Broy./Diag. 0.10E+00   13.2     0.01034689      -285.0257960221 -4.02E-03
    74 Broy./Diag. 0.10E+00   13.2     0.01109110      -285.0083990707  1.74E-02
    75 Broy./Diag. 0.10E+00   13.2     0.01660328      -284.9858955952  2.25E-02
    76 Broy./Diag. 0.10E+00   13.3     0.01072938      -285.0047478015 -1.89E-02
    77 Broy./Diag. 0.10E+00   13.3     0.01420922      -285.0025949551  2.15E-03
    78 Broy./Diag. 0.10E+00   13.3     0.00834050      -285.0176040099 -1.50E-02
    79 Broy./Diag. 0.10E+00   13.3     0.00503400      -285.0050649767  1.25E-02
    80 Broy./Diag. 0.10E+00   13.3     0.00492744      -285.0043077594  7.57E-04
    81 Broy./Diag. 0.10E+00   13.3     0.00230237      -284.9969320394  7.38E-03
    82 Broy./Diag. 0.10E+00   13.2     0.05479688      -285.0080224717 -1.11E-02
    83 Broy./Diag. 0.10E+00   13.3     0.02509603      -284.9814465049  2.66E-02
    84 Broy./Diag. 0.10E+00   13.3     0.00932370      -284.9913379646 -9.89E-03
    85 Broy./Diag. 0.10E+00   13.3     0.04623107      -284.9735100757  1.78E-02
    86 Broy./Diag. 0.10E+00   13.3     0.03678377      -284.9874366150 -1.39E-02
    87 Broy./Diag. 0.10E+00   13.2     0.00855439      -285.0031945671 -1.58E-02
    88 Broy./Diag. 0.10E+00   13.3     0.01997839      -284.9922603572  1.09E-02
    89 Broy./Diag. 0.10E+00   13.2     0.00807066      -284.9892703205  2.99E-03
    90 Broy./Diag. 0.10E+00   13.3     0.01076550      -284.9964916438 -7.22E-03
    91 Broy./Diag. 0.10E+00   13.3     0.03706313      -285.0186992378 -2.22E-02
    92 Broy./Diag. 0.10E+00   13.3     0.00695063      -285.0068307297  1.19E-02
    93 Broy./Diag. 0.10E+00   13.2     0.00626341      -285.0013439425  5.49E-03
    94 Broy./Diag. 0.10E+00   13.3     0.01800972      -284.9977486320  3.60E-03
    95 Broy./Diag. 0.10E+00   13.3     0.01913200      -284.9786642418  1.91E-02
    96 Broy./Diag. 0.10E+00   13.2     0.00281684      -284.9848893277 -6.23E-03
    97 Broy./Diag. 0.10E+00   13.3     0.00634129      -284.9907612172 -5.87E-03
    98 Broy./Diag. 0.10E+00   13.2     0.01307439      -284.9819098580  8.85E-03
    99 Broy./Diag. 0.10E+00   13.3     0.00858501      -285.0092633679 -2.74E-02
   100 Broy./Diag. 0.10E+00   13.2     0.00737314      -285.0000605832  9.20E-03

  Leaving inner SCF loop after reaching   100 steps.


  Electronic density on regular grids:       -177.0000012812       -0.0000012812
  Core density on regular grids:              176.9999999999       -0.0000000001
  Total charge density on r-space grids:       -0.0000012813
  Total charge density g-space grids:          -0.0000012813

  Overlap energy of the core charge distribution:               0.00000836868231
  Self energy of the core charge distribution:               -656.67682311856515
  Core Hamiltonian energy:                                    203.25483939922458
  Hartree energy:                                             248.05553968341187
  Exchange-correlation energy:                                -79.59131163783111
  Dispersion energy:                                           -0.04068283049687
  Electronic entropic energy:                                  -0.00159800530501
  Fermi energy:                                                -0.14671570110968

  Total energy:                                              -285.00006058315159

  outer SCF iter =  125 RMS gradient =   0.74E-02 energy =       -285.0000605832
     1 Broy./Diag. 0.10E+00   19.7     0.21969613      -284.9750068903  2.51E-02
     2 Broy./Diag. 0.10E+00   13.3     0.21505900      -285.5911215840 -6.16E-01
     3 Broy./Diag. 0.10E+00   13.2     0.01175772      -284.9898565150  6.01E-01
     4 Broy./Diag. 0.10E+00   13.2     0.02430165      -284.9852598670  4.60E-03
     5 Broy./Diag. 0.10E+00   13.3     0.00960426      -284.9846326849  6.27E-04
     6 Broy./Diag. 0.10E+00   13.3     0.02119630      -284.9733898199  1.12E-02
     7 Broy./Diag. 0.10E+00   13.2     0.01678472      -284.9595840153  1.38E-02
     8 Broy./Diag. 0.10E+00   13.2     0.00853596      -284.9744095541 -1.48E-02
     9 Broy./Diag. 0.10E+00   13.3     0.00363313      -284.9770813229 -2.67E-03
    10 Broy./Diag. 0.10E+00   13.2     0.00335827      -284.9685127701  8.57E-03
    11 Broy./Diag. 0.10E+00   13.3     0.00844243      -284.9693701475 -8.57E-04
    12 Broy./Diag. 0.10E+00   13.3     0.00510839      -284.9711581873 -1.79E-03
    13 Broy./Diag. 0.10E+00   13.3     0.01023891      -284.9820692986 -1.09E-02
    14 Broy./Diag. 0.10E+00   13.3     0.00846916      -284.9569380818  2.51E-02
    15 Broy./Diag. 0.10E+00   13.3     0.01239457      -284.9471988043  9.74E-03
    16 Broy./Diag. 0.10E+00   13.3     0.01399844      -284.9539217910 -6.72E-03
    17 Broy./Diag. 0.10E+00   13.2     0.00116400      -284.9572785533 -3.36E-03
    18 Broy./Diag. 0.10E+00   13.3     0.04048507      -284.9609120076 -3.63E-03
    19 Broy./Diag. 0.10E+00   13.3     0.01342710      -284.9517436212  9.17E-03
    20 Broy./Diag. 0.10E+00   13.3     0.03483288      -284.9529176973 -1.17E-03
    21 Broy./Diag. 0.10E+00   13.2     0.02512676      -284.9188316324  3.41E-02
    22 Broy./Diag. 0.10E+00   13.2     0.11411624      -284.9414777238 -2.26E-02
    23 Broy./Diag. 0.10E+00   13.2     0.01061123      -284.9745141171 -3.30E-02
    24 Broy./Diag. 0.10E+00   13.2     0.05956299      -284.9842360216 -9.72E-03
    25 Broy./Diag. 0.10E+00   13.3     0.00902864      -284.9934629008 -9.23E-03
    26 Broy./Diag. 0.10E+00   13.3     0.00899749      -285.0131336080 -1.97E-02
    27 Broy./Diag. 0.10E+00   13.3     0.00821404      -285.0041786179  8.95E-03
    28 Broy./Diag. 0.10E+00   13.3     0.00923636      -285.0195008364 -1.53E-02
    29 Broy./Diag. 0.10E+00   13.3     0.01677837      -285.0250348170 -5.53E-03
    30 Broy./Diag. 0.10E+00   13.3     0.03791674      -285.0278930316 -2.86E-03
    31 Broy./Diag. 0.10E+00   13.2     0.00721242      -285.0438238285 -1.59E-02
    32 Broy./Diag. 0.10E+00   13.3     0.01072561      -285.0193506163  2.45E-02
