 DBCSR| Multiplication driver                                               XSMM
 DBCSR| Multrec recursion limit                                              512
 DBCSR| Multiplication stack size                                           1000
 DBCSR| Maximum elements for images                                    UNLIMITED
 DBCSR| Multiplicative factor virtual images                                   1
 DBCSR| Multiplication size stacks                                             3
 DBCSR| Number of 3D layers                                               SINGLE
 DBCSR| Use MPI memory allocation                                              T
 DBCSR| Use RMA algorithm                                                      F
 DBCSR| Use Communication thread                                               T
 DBCSR| Communication thread load                                             87


  **** **** ******  **  PROGRAM STARTED AT               2024-07-24 13:40:41.092
 ***** ** ***  *** **   PROGRAM STARTED ON                            sebnode130
 **    ****   ******    PROGRAM STARTED BY                                luehrs
 ***** **    ** ** **   PROGRAM PROCESS ID                                290627
  **** **  *******  **  PROGRAM STARTED IN /home/luehrs/PhD/Sodium_batteries/Sod
                                           ium-graphene-edge/Armchair_2/No_hydro
                                           gen

 CP2K| version string:                    CP2K version 7.0 (Development Version)
 CP2K| source code revision number:                                             
 CP2K| cp2kflags: libint fftw3 libxc parallel mpi3 scalapack xsmm libderiv_max_a
 CP2K|            m1=8 libint_max_am=9 max_contr=4
 CP2K| is freely available from                            https://www.cp2k.org/
 CP2K| Program compiled at                         Sun Jun 24 14:37:16 CEST 2018
 CP2K| Program compiled on                                            sebstorage
 CP2K| Program compiled for                                Linux-x86-64-gfortran
 CP2K| Data directory path    /home/brehm/Software_Batchnode/2018/Source/cp2k_18
 CP2K| Input file name                        graphene_armchair_BSSE-1_2.restart

 GLOBAL| Force Environment number                                              1
 GLOBAL| Basis set file name                                      ./BASIS_MOLOPT
 GLOBAL| Potential file name                                    ./GTH_POTENTIALS
 GLOBAL| MM Potential file name                                     MM_POTENTIAL
 GLOBAL| Coordinate file name           ./graphene_armchair_no_hydrogen_relaxed.
 GLOBAL| Method name                                                        CP2K
 GLOBAL| Project name                                     graphene_armchair_BSSE
 GLOBAL| Preferred FFT library                                             FFTW3
 GLOBAL| Preferred diagonalization lib.                                       SL
 GLOBAL| Run type                                                           BSSE
 GLOBAL| All-to-all communication in single precision                          F
 GLOBAL| FFTs using library dependent lengths                                  F
 GLOBAL| Global print level                                               MEDIUM
 GLOBAL| Total number of message passing processes                            16
 GLOBAL| Number of threads for this process                                    1
 GLOBAL| This output is from process                                           0
 GLOBAL| CPU model name :  AMD EPYC 7513 32-Core Processor

 MEMORY| system memory details [Kb]
 MEMORY|                        rank 0           min           max       average
 MEMORY| MemTotal            131901912     131901912     131901912     131901912
 MEMORY| MemFree             126254016     126254016     126254016     126254016
 MEMORY| Buffers                113340        113340        113340        113340
 MEMORY| Cached                2417928       2417928       2417928       2417928
 MEMORY| Slab                  1004884       1004884       1004884       1004884
 MEMORY| SReclaimable           215672        215672        215672        215672
 MEMORY| MemLikelyFree       129000956     129000956     129000956     129000956


 *** Fundamental physical constants (SI units) ***

 *** Literature: B. J. Mohr and B. N. Taylor,
 ***             CODATA recommended values of the fundamental physical
 ***             constants: 2006, Web Version 5.1
 ***             http://physics.nist.gov/constants

 Speed of light in vacuum [m/s]                             2.99792458000000E+08
 Magnetic constant or permeability of vacuum [N/A**2]       1.25663706143592E-06
 Electric constant or permittivity of vacuum [F/m]          8.85418781762039E-12
 Planck constant (h) [J*s]                                  6.62606896000000E-34
 Planck constant (h-bar) [J*s]                              1.05457162825177E-34
 Elementary charge [C]                                      1.60217648700000E-19
 Electron mass [kg]                                         9.10938215000000E-31
 Electron g factor [ ]                                     -2.00231930436220E+00
 Proton mass [kg]                                           1.67262163700000E-27
 Fine-structure constant                                    7.29735253760000E-03
 Rydberg constant [1/m]                                     1.09737315685270E+07
 Avogadro constant [1/mol]                                  6.02214179000000E+23
 Boltzmann constant [J/K]                                   1.38065040000000E-23
 Atomic mass unit [kg]                                      1.66053878200000E-27
 Bohr radius [m]                                            5.29177208590000E-11

 *** Conversion factors ***

 [u] -> [a.u.]                                              1.82288848426455E+03
 [Angstrom] -> [Bohr] = [a.u.]                              1.88972613288564E+00
 [a.u.] = [Bohr] -> [Angstrom]                              5.29177208590000E-01
 [a.u.] -> [s]                                              2.41888432650478E-17
 [a.u.] -> [fs]                                             2.41888432650478E-02
 [a.u.] -> [J]                                              4.35974393937059E-18
 [a.u.] -> [N]                                              8.23872205491840E-08
 [a.u.] -> [K]                                              3.15774647902944E+05
 [a.u.] -> [kJ/mol]                                         2.62549961709828E+03
 [a.u.] -> [kcal/mol]                                       6.27509468713739E+02
 [a.u.] -> [Pa]                                             2.94210107994716E+13
 [a.u.] -> [bar]                                            2.94210107994716E+08
 [a.u.] -> [atm]                                            2.90362800883016E+08
 [a.u.] -> [eV]                                             2.72113838565563E+01
 [a.u.] -> [Hz]                                             6.57968392072181E+15
 [a.u.] -> [1/cm] (wave numbers)                            2.19474631370540E+05
 [a.u./Bohr**2] -> [1/cm]                                   5.14048714338585E+03
 

 CELL_TOP| Volume [angstrom^3]:                                        15412.800
 CELL_TOP| Vector a [angstrom    12.844     0.000     0.000    |a| =      12.844
 CELL_TOP| Vector b [angstrom     0.000    30.000     0.000    |b| =      30.000
 CELL_TOP| Vector c [angstrom     0.000     0.000    40.000    |c| =      40.000
 CELL_TOP| Angle (b,c), alpha [degree]:                                   90.000
 CELL_TOP| Angle (a,c), beta  [degree]:                                   90.000
 CELL_TOP| Angle (a,b), gamma [degree]:                                   90.000
 CELL_TOP| Requested initial symmetry:                                 TRICLINIC
 CELL_TOP| Numerically orthorhombic:                                         YES

 GENERATE|  Preliminary Number of Bonds generated:                             0
 GENERATE|  Achieved consistency in connectivity generation.

 CELL| Volume [angstrom^3]:                                            15412.800
 CELL| Vector a [angstrom]:      12.844     0.000     0.000    |a| =      12.844
 CELL| Vector b [angstrom]:       0.000    30.000     0.000    |b| =      30.000
 CELL| Vector c [angstrom]:       0.000     0.000    40.000    |c| =      40.000
 CELL| Angle (b,c), alpha [degree]:                                       90.000
 CELL| Angle (a,c), beta  [degree]:                                       90.000
 CELL| Angle (a,b), gamma [degree]:                                       90.000
 CELL| Requested initial symmetry:                                     TRICLINIC
 CELL| Numerically orthorhombic:                                             YES

 CELL_REF| Volume [angstrom^3]:                                        15412.800
 CELL_REF| Vector a [angstrom    12.844     0.000     0.000    |a| =      12.844
 CELL_REF| Vector b [angstrom     0.000    30.000     0.000    |b| =      30.000
 CELL_REF| Vector c [angstrom     0.000     0.000    40.000    |c| =      40.000
 CELL_REF| Angle (b,c), alpha [degree]:                                   90.000
 CELL_REF| Angle (a,c), beta  [degree]:                                   90.000
 CELL_REF| Angle (a,b), gamma [degree]:                                   90.000
 CELL_REF| Requested initial symmetry:                                 TRICLINIC
 CELL_REF| Numerically orthorhombic:                                         YES

 *******************************************************************************
 *******************************************************************************
 **                                                                           **
 **     #####                         ##              ##                      **
 **    ##   ##            ##          ##              ##                      **
 **   ##     ##                       ##            ######                    **
 **   ##     ##  ##   ##  ##   #####  ##  ##   ####   ##    #####    #####    **
 **   ##     ##  ##   ##  ##  ##      ## ##   ##      ##   ##   ##  ##   ##   **
 **   ##  ## ##  ##   ##  ##  ##      ####     ###    ##   ######   ######    **
 **    ##  ###   ##   ##  ##  ##      ## ##      ##   ##   ##       ##        **
 **     #######   #####   ##   #####  ##  ##  ####    ##    #####   ##        **
 **           ##                                                    ##        **
 **                                                                           **
 **                                                ... make the atoms dance   **
 **                                                                           **
 **            Copyright (C) by CP2K developers group (2000 - 2018)           **
 **                                                                           **
 *******************************************************************************

 DFT| Spin unrestricted (spin-polarized) Kohn-Sham calculation               UKS
 DFT| Multiplicity                                                             2
 DFT| Number of spin states                                                    2
 DFT| Charge                                                                   0
 DFT| Self-interaction correction (SIC)                                       NO
 DFT| Cutoffs: density                                              1.000000E-10
 DFT|          gradient                                             1.000000E-10
 DFT|          tau                                                  1.000000E-10
 DFT|          cutoff_smoothing_range                               0.000000E+00
 DFT| XC density smoothing                                                  NONE
 DFT| XC derivatives                                              SPLINE2_SMOOTH
 FUNCTIONAL| ROUTINE=NEW
 FUNCTIONAL| BECKE88:
 FUNCTIONAL| A. Becke, Phys. Rev. A 38, 3098 (1988) {LSD version}               
 FUNCTIONAL| LYP:
 FUNCTIONAL| C. Lee, W. Yang, R.G. Parr, Phys. Rev. B, 37, 785 (1988) {LSD versi
 FUNCTIONAL| on}                                                                
 vdW POTENTIAL|                                                   Pair Potential
 vdW POTENTIAL|          DFT-D3 (Version 3.1)
 vdW POTENTIAL|          Potential Form: S. Grimme et al, JCP 132: 154104 (2010)
 vdW POTENTIAL|          Zero Damping
 vdW POTENTIAL|          Cutoff Radius [Bohr]:                             20.00
 vdW POTENTIAL|          s6 Scaling Factor:                               1.0000
 vdW POTENTIAL|          sr6 Scaling Factor:                              1.0940
 vdW POTENTIAL|          s8 Scaling Factor:                               1.6820
 vdW POTENTIAL|          Cutoff for CN calculation:                   0.1000E-05

 QS| Method:                                                                 GPW
 QS| Density plane wave grid type                        NON-SPHERICAL FULLSPACE
 QS| Number of grid levels:                                                    4
 QS| Density cutoff [a.u.]:                                                250.0
 QS| Multi grid cutoff [a.u.]: 1) grid level                               250.0
 QS|                           2) grid level                                83.3
 QS|                           3) grid level                                27.8
 QS|                           4) grid level                                 9.3
 QS| Grid level progression factor:                                          3.0
 QS| Relative density cutoff [a.u.]:                                        20.0
 QS| Consistent realspace mapping and integration 
 QS| Interaction thresholds: eps_pgf_orb:                                1.0E-06
 QS|                         eps_filter_matrix:                          0.0E+00
 QS|                         eps_core_charge:                            1.0E-14
 QS|                         eps_rho_gspace:                             1.0E-12
 QS|                         eps_rho_rspace:                             1.0E-12
 QS|                         eps_gvg_rspace:                             1.0E-06
 QS|                         eps_ppl:                                    1.0E-02
 QS|                         eps_ppnl:                                   1.0E-08


 ATOMIC KIND INFORMATION

  1. Atomic kind: C                                     Number of atoms:      42

     Orbital Basis Set                                        DZVP-MOLOPT-SR-GTH

       Number of orbital shell sets:                                           1
       Number of orbital shells:                                               5
       Number of primitive Cartesian functions:                                5
       Number of Cartesian basis functions:                                   14
       Number of spherical basis functions:                                   13
       Norm type:                                                              2

       Normalised Cartesian orbitals:

                        Set   Shell   Orbital            Exponent    Coefficient

                          1       1    2s                5.605331       0.322515
                                                         2.113016       0.213043
                                                         0.769911      -0.209686
                                                         0.348157      -0.219794
                                                         0.128212      -0.022789

                          1       2    3s                5.605331       0.552234
                                                         2.113016       0.082072
                                                         0.769911       0.007843
                                                         0.348157       0.136893
                                                         0.128212       0.074283

                          1       3    3px               5.605331      -0.703879
                                                         2.113016      -0.642521
                                                         0.769911      -0.374851
                                                         0.348157      -0.139743
                                                         0.128212      -0.027849
                          1       3    3py               5.605331      -0.703879
                                                         2.113016      -0.642521
                                                         0.769911      -0.374851
                                                         0.348157      -0.139743
                                                         0.128212      -0.027849
                          1       3    3pz               5.605331      -0.703879
                                                         2.113016      -0.642521
                                                         0.769911      -0.374851
                                                         0.348157      -0.139743
                                                         0.128212      -0.027849

                          1       4    4px               5.605331      -0.480376
                                                         2.113016      -0.552894
                                                         0.769911      -0.316145
                                                         0.348157       0.210505
                                                         0.128212       0.076095
                          1       4    4py               5.605331      -0.480376
                                                         2.113016      -0.552894
                                                         0.769911      -0.316145
                                                         0.348157       0.210505
                                                         0.128212       0.076095
                          1       4    4pz               5.605331      -0.480376
                                                         2.113016      -0.552894
                                                         0.769911      -0.316145
                                                         0.348157       0.210505
                                                         0.128212       0.076095

                          1       5    4dx2              5.605331       0.640026
                                                         2.113016       0.274300
                                                         0.769911       0.446711
                                                         0.348157       0.028674
                                                         0.128212       0.029790
                          1       5    4dxy              5.605331       1.108557
                                                         2.113016       0.475102
                                                         0.769911       0.773726
                                                         0.348157       0.049666
                                                         0.128212       0.051599
                          1       5    4dxz              5.605331       1.108557
                                                         2.113016       0.475102
                                                         0.769911       0.773726
                                                         0.348157       0.049666
                                                         0.128212       0.051599
                          1       5    4dy2              5.605331       0.640026
                                                         2.113016       0.274300
                                                         0.769911       0.446711
                                                         0.348157       0.028674
                                                         0.128212       0.029790
                          1       5    4dyz              5.605331       1.108557
                                                         2.113016       0.475102
                                                         0.769911       0.773726
                                                         0.348157       0.049666
                                                         0.128212       0.051599
                          1       5    4dz2              5.605331       0.640026
                                                         2.113016       0.274300
                                                         0.769911       0.446711
                                                         0.348157       0.028674
                                                         0.128212       0.029790

     GTH Potential information for                                    GTH-PBE-q4

       Description:                       Goedecker-Teter-Hutter pseudopotential
                                           Goedecker et al., PRB 54, 1703 (1996)
                                          Hartwigsen et al., PRB 58, 3641 (1998)
                                                      Krack, TCA 114, 145 (2005)

       Gaussian exponent of the core charge distribution:               4.364419
       Electronic configuration (s p d ...):                               2   2

       Parameters of the local part of the GTH pseudopotential:

                          rloc        C1          C2          C3          C4
                        0.338471   -8.803674    1.339211

       Parameters of the non-local part of the GTH pseudopotential:

                   l      r(l)      h(i,j,l)

                   0    0.302576    9.622487
                   1    0.291507

  2. Atomic kind: Na                                    Number of atoms:       1

     Orbital Basis Set                                        DZVP-MOLOPT-SR-GTH

       Number of orbital shell sets:                                           1
       Number of orbital shells:                                               5
       Number of primitive Cartesian functions:                                7
       Number of Cartesian basis functions:                                    9
       Number of spherical basis functions:                                    9
       Norm type:                                                              2

       Normalised Cartesian orbitals:

                        Set   Shell   Orbital            Exponent    Coefficient

                          1       1    2s               23.518801       0.288931
                                                        11.135656       0.787174
                                                         4.647814      -0.190850
                                                         1.866708      -0.573823
                                                         0.734684      -0.276866
                                                         0.275673      -0.024211
                                                         0.049895      -0.000019

                          1       2    3s               23.518801       0.039212
                                                        11.135656       0.138585
                                                         4.647814      -0.048916
                                                         1.866708      -0.102378
                                                         0.734684      -0.139633
                                                         0.275673       0.012767
                                                         0.049895       0.077569

                          1       3    4s               23.518801       0.303698
                                                        11.135656      -0.548845
                                                         4.647814       0.534441
                                                         1.866708      -0.220920
                                                         0.734684       0.980584
                                                         0.275673      -0.653367
                                                         0.049895       0.063703

                          1       4    3px              23.518801      -2.919466
                                                        11.135656      -2.855941
                                                         4.647814      -2.579491
                                                         1.866708      -1.208264
                                                         0.734684      -0.321406
                                                         0.275673      -0.035032
                                                         0.049895      -0.000067
                          1       4    3py              23.518801      -2.919466
                                                        11.135656      -2.855941
                                                         4.647814      -2.579491
                                                         1.866708      -1.208264
                                                         0.734684      -0.321406
                                                         0.275673      -0.035032
                                                         0.049895      -0.000067
                          1       4    3pz              23.518801      -2.919466
                                                        11.135656      -2.855941
                                                         4.647814      -2.579491
                                                         1.866708      -1.208264
                                                         0.734684      -0.321406
                                                         0.275673      -0.035032
                                                         0.049895      -0.000067

                          1       5    4px              23.518801      -0.381914
                                                        11.135656      -0.488169
                                                         4.647814      -0.407378
                                                         1.866708      -0.201739
                                                         0.734684      -0.078845
                                                         0.275673       0.043427
                                                         0.049895       0.031563
                          1       5    4py              23.518801      -0.381914
                                                        11.135656      -0.488169
                                                         4.647814      -0.407378
                                                         1.866708      -0.201739
                                                         0.734684      -0.078845
                                                         0.275673       0.043427
                                                         0.049895       0.031563
                          1       5    4pz              23.518801      -0.381914
                                                        11.135656      -0.488169
                                                         4.647814      -0.407378
                                                         1.866708      -0.201739
                                                         0.734684      -0.078845
                                                         0.275673       0.043427
                                                         0.049895       0.031563

     GTH Potential information for                                    GTH-PBE-q9

       Description:                       Goedecker-Teter-Hutter pseudopotential
                                           Goedecker et al., PRB 54, 1703 (1996)
                                          Hartwigsen et al., PRB 58, 3641 (1998)
                                                      Krack, TCA 114, 145 (2005)

       Gaussian exponent of the core charge distribution:               8.937631
       Electronic configuration (s p d ...):                               3   6

       Parameters of the local part of the GTH pseudopotential:

                          rloc        C1          C2          C3          C4
                        0.236523    0.295105   -0.913885

       Parameters of the non-local part of the GTH pseudopotential:

                   l      r(l)      h(i,j,l)

                   0    0.143560   34.601492
                   1    0.129932  -14.277462


 MOLECULE KIND INFORMATION


 All atoms are their own molecule, skipping detailed information


 TOTAL NUMBERS AND MAXIMUM NUMBERS

  Total number of            - Atomic kinds:                                   2
                             - Atoms:                                         43
                             - Shell sets:                                    43
                             - Shells:                                       215
                             - Primitive Cartesian functions:                217
                             - Cartesian basis functions:                    597
                             - Spherical basis functions:                    555

  Maximum angular momentum of- Orbital basis functions:                        2
                             - Local part of the GTH pseudopotential:          2
                             - Non-local part of the GTH pseudopotential:      1


 MODULE QUICKSTEP:  ATOMIC COORDINATES IN angstrom

  Atom  Kind  Element       X           Y           Z          Z(eff)       Mass

       1     1 C    6    0.694560   -1.175500   -0.001080      4.00      12.0107
       2     1 C    6    0.000000    0.000000    0.000000      4.00      12.0107
       3     1 C    6    0.604390    1.277760   -0.012280      4.00      12.0107
       4     1 C    6    0.054290    2.530320   -0.021840      4.00      12.0107
       5     1 C    6    0.589830    3.791460   -0.069530      4.00      12.0107
       6     1 C    6   -0.026340    5.060010   -0.096760      4.00      12.0107
       7     1 C    6    0.662760    6.240110   -0.159280      4.00      12.0107
       8     1 C    6    2.069120    6.230210   -0.188350      4.00      12.0107
       9     1 C    6    2.092310    3.785810   -0.095990      4.00      12.0107
      10     1 C    6    2.802150    2.544270   -0.066540      4.00      12.0107
      11     1 C    6    2.107440    1.297480   -0.026040      4.00      12.0107
      12     1 C    6    2.818380    0.054480   -0.009740      4.00      12.0107
      13     1 C    6    2.103880   -1.155070    0.000460      4.00      12.0107
      14     1 C    6    2.795710    5.028190   -0.156950      4.00      12.0107
      15     1 C    6    4.975940    6.214880   -0.241670      4.00      12.0107
      16     1 C    6    4.265470    5.029770   -0.176540      4.00      12.0107
      17     1 C    6    4.983090    3.776320   -0.123790      4.00      12.0107
      18     1 C    6    4.264140    2.557840   -0.078590      4.00      12.0107
      19     1 C    6    4.987280    1.307110   -0.043640      4.00      12.0107
      20     1 C    6    4.278880    0.073720   -0.012410      4.00      12.0107
      21     1 C    6    5.021760   -1.133230    0.008730      4.00      12.0107
      22     1 C    6    6.396430   -1.140260    0.009300      4.00      12.0107
      23     1 C    6    7.139000    0.066510   -0.008990      4.00      12.0107
      24     1 C    6    6.430500    1.307660   -0.042700      4.00      12.0107
      25     1 C    6    7.158640    2.552530   -0.076820      4.00      12.0107
      26     1 C    6    6.437040    3.801090   -0.124130      4.00      12.0107
      27     1 C    6    7.155680    5.034710   -0.165680      4.00      12.0107
      28     1 C    6    6.399080    6.318960   -0.225640      4.00      12.0107
      29     1 C    6    9.344700    6.239600   -0.159560      4.00      12.0107
      30     1 C    6    8.602930    5.025720   -0.143640      4.00      12.0107
      31     1 C    6    9.309620    3.780570   -0.092940      4.00      12.0107
      32     1 C    6    8.602260    2.538820   -0.067180      4.00      12.0107
      33     1 C    6    9.302400    1.282720   -0.031490      4.00      12.0107
      34     1 C    6    8.592060    0.049580   -0.005400      4.00      12.0107
      35     1 C    6    9.313020   -1.170640    0.014390      4.00      12.0107
      36     1 C    6   10.712380   -1.182590    0.015260      4.00      12.0107
      37     1 C    6   11.417330    0.000000    0.000000      4.00      12.0107
      38     1 C    6   10.792700    1.267400   -0.026680      4.00      12.0107
      39     1 C    6   11.360950    2.522490   -0.046120      4.00      12.0107
      40     1 C    6   10.810620    3.781110   -0.069480      4.00      12.0107
      41     1 C    6   11.421210    5.049880   -0.079770      4.00      12.0107
      42     1 C    6   10.745480    6.241010   -0.117860      4.00      12.0107
      43     2 Na  11    2.086990    6.319710    2.499280      9.00      22.9898




 SCF PARAMETERS         Density guess:                                    ATOMIC
                        --------------------------------------------------------
                        max_scf:                                             100
                        max_scf_history:                                       0
                        max_diis:                                              4
                        --------------------------------------------------------
                        eps_scf:                                        3.00E-07
                        eps_scf_history:                                0.00E+00
                        eps_diis:                                       1.00E-01
                        eps_eigval:                                     1.00E-05
                        --------------------------------------------------------
                        level_shift [a.u.]:                                 0.00
                        added MOs                                       100  100
                        --------------------------------------------------------
                        Mixing method:                            BROYDEN_MIXING
                                                charge density mixing in g-space
                        --------------------------------------------------------
                        Smear method:                                FERMI_DIRAC
                        Electronic temperature [K]:                        300.0
                        Electronic temperature [a.u.]:                  9.50E-04
                        Accuracy threshold:                             1.00E-10
                        --------------------------------------------------------
                        Outer loop SCF in use 
                        No variables optimised in outer loop
                        eps_scf                                         1.00E-06
                        max_scf                                              150
                        DIIS optimization
                        DIIS buffer length                                     3
                        step_size                                       5.00E-01

 PW_GRID| Information for grid number                                          1
 PW_GRID| Grid distributed over                                    16 processors
 PW_GRID| Real space group dimensions                                    16    1
 PW_GRID| the grid is blocked:                                                NO
 PW_GRID| Cutoff [a.u.]                                                    250.0
 PW_GRID| spherical cutoff:                                                   NO
 PW_GRID|   Bounds   1            -90      89                Points:         180
 PW_GRID|   Bounds   2           -202     202                Points:         405
 PW_GRID|   Bounds   3           -270     269                Points:         540
 PW_GRID| Volume element (a.u.^3)  0.2642E-02     Volume (a.u.^3)    104010.7313
 PW_GRID| Grid span                                                    FULLSPACE
 PW_GRID|   Distribution                         Average         Max         Min
 PW_GRID|   G-Vectors                          2460375.0     2460420     2460240
 PW_GRID|   G-Rays                               13668.8       13669       13668
 PW_GRID|   Real Space Points                  2460375.0     2624400     2405700

 PW_GRID| Information for grid number                                          2
 PW_GRID| Grid distributed over                                    16 processors
 PW_GRID| Real space group dimensions                                    16    1
 PW_GRID| the grid is blocked:                                                NO
 PW_GRID| Cutoff [a.u.]                                                     83.3
 PW_GRID| spherical cutoff:                                                   NO
 PW_GRID|   Bounds   1            -50      49                Points:         100
 PW_GRID|   Bounds   2           -120     119                Points:         240
 PW_GRID|   Bounds   3           -160     159                Points:         320
 PW_GRID| Volume element (a.u.^3)  0.1354E-01     Volume (a.u.^3)    104010.7313
 PW_GRID| Grid span                                                    FULLSPACE
 PW_GRID|   Distribution                         Average         Max         Min
 PW_GRID|   G-Vectors                           480000.0      480400      479600
 PW_GRID|   G-Rays                                4800.0        4804        4796
 PW_GRID|   Real Space Points                   480000.0      537600      460800

 PW_GRID| Information for grid number                                          3
 PW_GRID| Grid distributed over                                    16 processors
 PW_GRID| Real space group dimensions                                    16    1
 PW_GRID| the grid is blocked:                                                NO
 PW_GRID| Cutoff [a.u.]                                                     27.8
 PW_GRID| spherical cutoff:                                                   NO
 PW_GRID|   Bounds   1            -30      29                Points:          60
 PW_GRID|   Bounds   2            -67      67                Points:         135
 PW_GRID|   Bounds   3            -90      89                Points:         180
 PW_GRID| Volume element (a.u.^3)  0.7134E-01     Volume (a.u.^3)    104010.7313
 PW_GRID| Grid span                                                    FULLSPACE
 PW_GRID|   Distribution                         Average         Max         Min
 PW_GRID|   G-Vectors                            91125.0       91260       91020
 PW_GRID|   G-Rays                                1518.8        1521        1517
 PW_GRID|   Real Space Points                    91125.0       97200       72900

 PW_GRID| Information for grid number                                          4
 PW_GRID| Grid distributed over                                    16 processors
 PW_GRID| Real space group dimensions                                    16    1
 PW_GRID| the grid is blocked:                                                NO
 PW_GRID| Cutoff [a.u.]                                                      9.3
 PW_GRID| spherical cutoff:                                                   NO
 PW_GRID|   Bounds   1            -18      17                Points:          36
 PW_GRID|   Bounds   2            -40      39                Points:          80
 PW_GRID|   Bounds   3            -54      53                Points:         108
 PW_GRID| Volume element (a.u.^3)  0.3344         Volume (a.u.^3)    104010.7313
 PW_GRID| Grid span                                                    FULLSPACE
 PW_GRID|   Distribution                         Average         Max         Min
 PW_GRID|   G-Vectors                            19440.0       19548       19332
 PW_GRID|   G-Rays                                 540.0         543         537
 PW_GRID|   Real Space Points                    19440.0       25920       17280

 POISSON| Solver                                                        PERIODIC
 POISSON| Periodicity                                                        XYZ

 RS_GRID| Information for grid number                                          1
 RS_GRID|   Bounds   1            -90      89                Points:         180
 RS_GRID|   Bounds   2           -202     202                Points:         405
 RS_GRID|   Bounds   3           -270     269                Points:         540
 RS_GRID| Real space distribution over                                  4 groups
 RS_GRID| Real space distribution along direction                              2
 RS_GRID| Border size                                                         23
 RS_GRID| Real space distribution over                                  4 groups
 RS_GRID| Real space distribution along direction                              3
 RS_GRID| Border size                                                         23
 RS_GRID|   Distribution                         Average         Max         Min
 RS_GRID|   Planes                                 147.2         148         147
 RS_GRID|   Distribution                         Average         Max         Min
 RS_GRID|   Planes                                 181.0         181         181

 RS_GRID| Information for grid number                                          2
 RS_GRID|   Bounds   1            -50      49                Points:         100
 RS_GRID|   Bounds   2           -120     119                Points:         240
 RS_GRID|   Bounds   3           -160     159                Points:         320
 RS_GRID| Real space distribution over                                  4 groups
 RS_GRID| Real space distribution along direction                              2
 RS_GRID| Border size                                                         22
 RS_GRID| Real space distribution over                                  4 groups
 RS_GRID| Real space distribution along direction                              3
 RS_GRID| Border size                                                         22
 RS_GRID|   Distribution                         Average         Max         Min
 RS_GRID|   Planes                                 104.0         104         104
 RS_GRID|   Distribution                         Average         Max         Min
 RS_GRID|   Planes                                 124.0         124         124

 RS_GRID| Information for grid number                                          3
 RS_GRID|   Bounds   1            -30      29                Points:          60
 RS_GRID|   Bounds   2            -67      67                Points:         135
 RS_GRID|   Bounds   3            -90      89                Points:         180
 RS_GRID| Real space fully replicated
 RS_GRID| Group size                                                           1

 RS_GRID| Information for grid number                                          4
 RS_GRID|   Bounds   1            -18      17                Points:          36
 RS_GRID|   Bounds   2            -40      39                Points:          80
 RS_GRID|   Bounds   3            -54      53                Points:         108
 RS_GRID| Real space fully replicated
 RS_GRID| Group size                                                           1

 -------------------------------------------------------------------------------
 -                                                                             -
 -  BSSE CALCULATION         FRAGMENT CONF: 11        FRAGMENT SUBCONF: 10     -
 -                           CHARGE =     0           MULTIPLICITY =     0     -
 -                                                                             -
 -                 ATOM INDEX                              ATOM NAME           -
 -                 ----------                              ---------           -
 -                      1                                   C                  -
 -                      2                                   C                  -
 -                      3                                   C                  -
 -                      4                                   C                  -
 -                      5                                   C                  -
 -                      6                                   C                  -
 -                      7                                   C                  -
 -                      8                                   C                  -
 -                      9                                   C                  -
 -                     10                                   C                  -
 -                     11                                   C                  -
 -                     12                                   C                  -
 -                     13                                   C                  -
 -                     14                                   C                  -
 -                     15                                   C                  -
 -                     16                                   C                  -
 -                     17                                   C                  -
 -                     18                                   C                  -
 -                     19                                   C                  -
 -                     20                                   C                  -
 -                     21                                   C                  -
 -                     22                                   C                  -
 -                     23                                   C                  -
 -                     24                                   C                  -
 -                     25                                   C                  -
 -                     26                                   C                  -
 -                     27                                   C                  -
 -                     28                                   C                  -
 -                     29                                   C                  -
 -                     30                                   C                  -
 -                     31                                   C                  -
 -                     32                                   C                  -
 -                     33                                   C                  -
 -                     34                                   C                  -
 -                     35                                   C                  -
 -                     36                                   C                  -
 -                     37                                   C                  -
 -                     38                                   C                  -
 -                     39                                   C                  -
 -                     40                                   C                  -
 -                     41                                   C                  -
 -                     42                                   C                  -
 -                     43                                   Na_ghost           -
 -------------------------------------------------------------------------------

 CELL| Volume [angstrom^3]:                                            15412.800
 CELL| Vector a [angstrom]:      12.844     0.000     0.000    |a| =      12.844
 CELL| Vector b [angstrom]:       0.000    30.000     0.000    |b| =      30.000
 CELL| Vector c [angstrom]:       0.000     0.000    40.000    |c| =      40.000
 CELL| Angle (b,c), alpha [degree]:                                       90.000
 CELL| Angle (a,c), beta  [degree]:                                       90.000
 CELL| Angle (a,b), gamma [degree]:                                       90.000
 CELL| Requested initial symmetry:                                     TRICLINIC
 CELL| Numerically orthorhombic:                                             YES

 CELL_REF| Volume [angstrom^3]:                                        15412.800
 CELL_REF| Vector a [angstrom    12.844     0.000     0.000    |a| =      12.844
 CELL_REF| Vector b [angstrom     0.000    30.000     0.000    |b| =      30.000
 CELL_REF| Vector c [angstrom     0.000     0.000    40.000    |c| =      40.000
 CELL_REF| Angle (b,c), alpha [degree]:                                   90.000
 CELL_REF| Angle (a,c), beta  [degree]:                                   90.000
 CELL_REF| Angle (a,b), gamma [degree]:                                   90.000
 CELL_REF| Requested initial symmetry:                                 TRICLINIC
 CELL_REF| Numerically orthorhombic:                                         YES

 *******************************************************************************
 *******************************************************************************
 **                                                                           **
 **     #####                         ##              ##                      **
 **    ##   ##            ##          ##              ##                      **
 **   ##     ##                       ##            ######                    **
 **   ##     ##  ##   ##  ##   #####  ##  ##   ####   ##    #####    #####    **
 **   ##     ##  ##   ##  ##  ##      ## ##   ##      ##   ##   ##  ##   ##   **
 **   ##  ## ##  ##   ##  ##  ##      ####     ###    ##   ######   ######    **
 **    ##  ###   ##   ##  ##  ##      ## ##      ##   ##   ##       ##        **
 **     #######   #####   ##   #####  ##  ##  ####    ##    #####   ##        **
 **           ##                                                    ##        **
 **                                                                           **
 **                                                ... make the atoms dance   **
 **                                                                           **
 **            Copyright (C) by CP2K developers group (2000 - 2018)           **
 **                                                                           **
 *******************************************************************************

 DFT| Spin unrestricted (spin-polarized) Kohn-Sham calculation               UKS
 DFT| Multiplicity                                                             1
 DFT| Number of spin states                                                    2
 DFT| Charge                                                                   0
 DFT| Self-interaction correction (SIC)                                       NO
 DFT| Cutoffs: density                                              1.000000E-10
 DFT|          gradient                                             1.000000E-10
 DFT|          tau                                                  1.000000E-10
 DFT|          cutoff_smoothing_range                               0.000000E+00
 DFT| XC density smoothing                                                  NONE
 DFT| XC derivatives                                              SPLINE2_SMOOTH
 FUNCTIONAL| ROUTINE=NEW
 FUNCTIONAL| BECKE88:
 FUNCTIONAL| A. Becke, Phys. Rev. A 38, 3098 (1988) {LSD version}               
 FUNCTIONAL| LYP:
 FUNCTIONAL| C. Lee, W. Yang, R.G. Parr, Phys. Rev. B, 37, 785 (1988) {LSD versi
 FUNCTIONAL| on}                                                                
 vdW POTENTIAL|                                                   Pair Potential
 vdW POTENTIAL|          DFT-D3 (Version 3.1)
 vdW POTENTIAL|          Potential Form: S. Grimme et al, JCP 132: 154104 (2010)
 vdW POTENTIAL|          Zero Damping
 vdW POTENTIAL|          Cutoff Radius [Bohr]:                             20.00
 vdW POTENTIAL|          s6 Scaling Factor:                               1.0000
 vdW POTENTIAL|          sr6 Scaling Factor:                              1.0940
 vdW POTENTIAL|          s8 Scaling Factor:                               1.6820
 vdW POTENTIAL|          Cutoff for CN calculation:                   0.1000E-05

 QS| Method:                                                                 GPW
 QS| Density plane wave grid type                        NON-SPHERICAL FULLSPACE
 QS| Number of grid levels:                                                    4
 QS| Density cutoff [a.u.]:                                                250.0
 QS| Multi grid cutoff [a.u.]: 1) grid level                               250.0
 QS|                           2) grid level                                83.3
 QS|                           3) grid level                                27.8
 QS|                           4) grid level                                 9.3
 QS| Grid level progression factor:                                          3.0
 QS| Relative density cutoff [a.u.]:                                        20.0
 QS| Consistent realspace mapping and integration 
 QS| Interaction thresholds: eps_pgf_orb:                                1.0E-06
 QS|                         eps_filter_matrix:                          0.0E+00
 QS|                         eps_core_charge:                            1.0E-14
 QS|                         eps_rho_gspace:                             1.0E-12
 QS|                         eps_rho_rspace:                             1.0E-12
 QS|                         eps_gvg_rspace:                             1.0E-06
 QS|                         eps_ppl:                                    1.0E-02
 QS|                         eps_ppnl:                                   1.0E-08


 ATOMIC KIND INFORMATION

  1. Atomic kind: C                                     Number of atoms:      42

     Orbital Basis Set                                        DZVP-MOLOPT-SR-GTH

       Number of orbital shell sets:                                           1
       Number of orbital shells:                                               5
       Number of primitive Cartesian functions:                                5
       Number of Cartesian basis functions:                                   14
       Number of spherical basis functions:                                   13
       Norm type:                                                              2

       Normalised Cartesian orbitals:

                        Set   Shell   Orbital            Exponent    Coefficient

                          1       1    2s                5.605331       0.322515
                                                         2.113016       0.213043
                                                         0.769911      -0.209686
                                                         0.348157      -0.219794
                                                         0.128212      -0.022789

                          1       2    3s                5.605331       0.552234
                                                         2.113016       0.082072
                                                         0.769911       0.007843
                                                         0.348157       0.136893
                                                         0.128212       0.074283

                          1       3    3px               5.605331      -0.703879
                                                         2.113016      -0.642521
                                                         0.769911      -0.374851
                                                         0.348157      -0.139743
                                                         0.128212      -0.027849
                          1       3    3py               5.605331      -0.703879
                                                         2.113016      -0.642521
                                                         0.769911      -0.374851
                                                         0.348157      -0.139743
                                                         0.128212      -0.027849
                          1       3    3pz               5.605331      -0.703879
                                                         2.113016      -0.642521
                                                         0.769911      -0.374851
                                                         0.348157      -0.139743
                                                         0.128212      -0.027849

                          1       4    4px               5.605331      -0.480376
                                                         2.113016      -0.552894
                                                         0.769911      -0.316145
                                                         0.348157       0.210505
                                                         0.128212       0.076095
                          1       4    4py               5.605331      -0.480376
                                                         2.113016      -0.552894
                                                         0.769911      -0.316145
                                                         0.348157       0.210505
                                                         0.128212       0.076095
                          1       4    4pz               5.605331      -0.480376
                                                         2.113016      -0.552894
                                                         0.769911      -0.316145
                                                         0.348157       0.210505
                                                         0.128212       0.076095

                          1       5    4dx2              5.605331       0.640026
                                                         2.113016       0.274300
                                                         0.769911       0.446711
                                                         0.348157       0.028674
                                                         0.128212       0.029790
                          1       5    4dxy              5.605331       1.108557
                                                         2.113016       0.475102
                                                         0.769911       0.773726
                                                         0.348157       0.049666
                                                         0.128212       0.051599
                          1       5    4dxz              5.605331       1.108557
                                                         2.113016       0.475102
                                                         0.769911       0.773726
                                                         0.348157       0.049666
                                                         0.128212       0.051599
                          1       5    4dy2              5.605331       0.640026
                                                         2.113016       0.274300
                                                         0.769911       0.446711
                                                         0.348157       0.028674
                                                         0.128212       0.029790
                          1       5    4dyz              5.605331       1.108557
                                                         2.113016       0.475102
                                                         0.769911       0.773726
                                                         0.348157       0.049666
                                                         0.128212       0.051599
                          1       5    4dz2              5.605331       0.640026
                                                         2.113016       0.274300
                                                         0.769911       0.446711
                                                         0.348157       0.028674
                                                         0.128212       0.029790

     GTH Potential information for                                    GTH-PBE-q4

       Description:                       Goedecker-Teter-Hutter pseudopotential
                                           Goedecker et al., PRB 54, 1703 (1996)
                                          Hartwigsen et al., PRB 58, 3641 (1998)
                                                      Krack, TCA 114, 145 (2005)

       Gaussian exponent of the core charge distribution:               4.364419
       Electronic configuration (s p d ...):                               2   2

       Parameters of the local part of the GTH pseudopotential:

                          rloc        C1          C2          C3          C4
                        0.338471   -8.803674    1.339211

       Parameters of the non-local part of the GTH pseudopotential:

                   l      r(l)      h(i,j,l)

                   0    0.302576    9.622487
                   1    0.291507

  2. Atomic kind: Na_ghost                              Number of atoms:       1

     Orbital Basis Set                                        DZVP-MOLOPT-SR-GTH

       Number of orbital shell sets:                                           1
       Number of orbital shells:                                               5
       Number of primitive Cartesian functions:                                7
       Number of Cartesian basis functions:                                    9
       Number of spherical basis functions:                                    9
       Norm type:                                                              2

       Normalised Cartesian orbitals:

                        Set   Shell   Orbital            Exponent    Coefficient

                          1       1    2s               23.518801       0.288931
                                                        11.135656       0.787174
                                                         4.647814      -0.190850
                                                         1.866708      -0.573823
                                                         0.734684      -0.276866
                                                         0.275673      -0.024211
                                                         0.049895      -0.000019

                          1       2    3s               23.518801       0.039212
                                                        11.135656       0.138585
                                                         4.647814      -0.048916
                                                         1.866708      -0.102378
                                                         0.734684      -0.139633
                                                         0.275673       0.012767
                                                         0.049895       0.077569

                          1       3    4s               23.518801       0.303698
                                                        11.135656      -0.548845
                                                         4.647814       0.534441
                                                         1.866708      -0.220920
                                                         0.734684       0.980584
                                                         0.275673      -0.653367
                                                         0.049895       0.063703

                          1       4    3px              23.518801      -2.919466
                                                        11.135656      -2.855941
                                                         4.647814      -2.579491
                                                         1.866708      -1.208264
                                                         0.734684      -0.321406
                                                         0.275673      -0.035032
                                                         0.049895      -0.000067
                          1       4    3py              23.518801      -2.919466
                                                        11.135656      -2.855941
                                                         4.647814      -2.579491
                                                         1.866708      -1.208264
                                                         0.734684      -0.321406
                                                         0.275673      -0.035032
                                                         0.049895      -0.000067
                          1       4    3pz              23.518801      -2.919466
                                                        11.135656      -2.855941
                                                         4.647814      -2.579491
                                                         1.866708      -1.208264
                                                         0.734684      -0.321406
                                                         0.275673      -0.035032
                                                         0.049895      -0.000067

                          1       5    4px              23.518801      -0.381914
                                                        11.135656      -0.488169
                                                         4.647814      -0.407378
                                                         1.866708      -0.201739
                                                         0.734684      -0.078845
                                                         0.275673       0.043427
                                                         0.049895       0.031563
                          1       5    4py              23.518801      -0.381914
                                                        11.135656      -0.488169
                                                         4.647814      -0.407378
                                                         1.866708      -0.201739
                                                         0.734684      -0.078845
                                                         0.275673       0.043427
                                                         0.049895       0.031563
                          1       5    4pz              23.518801      -0.381914
                                                        11.135656      -0.488169
                                                         4.647814      -0.407378
                                                         1.866708      -0.201739
                                                         0.734684      -0.078845
                                                         0.275673       0.043427
                                                         0.049895       0.031563

     The atoms of this atomic kind are GHOST atoms!


 MOLECULE KIND INFORMATION


 All atoms are their own molecule, skipping detailed information


 TOTAL NUMBERS AND MAXIMUM NUMBERS

  Total number of            - Atomic kinds:                                   2
                             - Atoms:                                         43
                             - Shell sets:                                    43
                             - Shells:                                       215
                             - Primitive Cartesian functions:                217
                             - Cartesian basis functions:                    597
                             - Spherical basis functions:                    555

  Maximum angular momentum of- Orbital basis functions:                        2
                             - Local part of the GTH pseudopotential:          2
                             - Non-local part of the GTH pseudopotential:      0


 MODULE QUICKSTEP:  ATOMIC COORDINATES IN angstrom

  Atom  Kind  Element       X           Y           Z          Z(eff)       Mass

       1     1 C    6    0.694560   -1.175500   -0.001080      4.00      12.0107
       2     1 C    6    0.000000    0.000000    0.000000      4.00      12.0107
       3     1 C    6    0.604390    1.277760   -0.012280      4.00      12.0107
       4     1 C    6    0.054290    2.530320   -0.021840      4.00      12.0107
       5     1 C    6    0.589830    3.791460   -0.069530      4.00      12.0107
       6     1 C    6   -0.026340    5.060010   -0.096760      4.00      12.0107
       7     1 C    6    0.662760    6.240110   -0.159280      4.00      12.0107
       8     1 C    6    2.069120    6.230210   -0.188350      4.00      12.0107
       9     1 C    6    2.092310    3.785810   -0.095990      4.00      12.0107
      10     1 C    6    2.802150    2.544270   -0.066540      4.00      12.0107
      11     1 C    6    2.107440    1.297480   -0.026040      4.00      12.0107
      12     1 C    6    2.818380    0.054480   -0.009740      4.00      12.0107
      13     1 C    6    2.103880   -1.155070    0.000460      4.00      12.0107
      14     1 C    6    2.795710    5.028190   -0.156950      4.00      12.0107
      15     1 C    6    4.975940    6.214880   -0.241670      4.00      12.0107
      16     1 C    6    4.265470    5.029770   -0.176540      4.00      12.0107
      17     1 C    6    4.983090    3.776320   -0.123790      4.00      12.0107
      18     1 C    6    4.264140    2.557840   -0.078590      4.00      12.0107
      19     1 C    6    4.987280    1.307110   -0.043640      4.00      12.0107
      20     1 C    6    4.278880    0.073720   -0.012410      4.00      12.0107
      21     1 C    6    5.021760   -1.133230    0.008730      4.00      12.0107
      22     1 C    6    6.396430   -1.140260    0.009300      4.00      12.0107
      23     1 C    6    7.139000    0.066510   -0.008990      4.00      12.0107
      24     1 C    6    6.430500    1.307660   -0.042700      4.00      12.0107
      25     1 C    6    7.158640    2.552530   -0.076820      4.00      12.0107
      26     1 C    6    6.437040    3.801090   -0.124130      4.00      12.0107
      27     1 C    6    7.155680    5.034710   -0.165680      4.00      12.0107
      28     1 C    6    6.399080    6.318960   -0.225640      4.00      12.0107
      29     1 C    6    9.344700    6.239600   -0.159560      4.00      12.0107
      30     1 C    6    8.602930    5.025720   -0.143640      4.00      12.0107
      31     1 C    6    9.309620    3.780570   -0.092940      4.00      12.0107
      32     1 C    6    8.602260    2.538820   -0.067180      4.00      12.0107
      33     1 C    6    9.302400    1.282720   -0.031490      4.00      12.0107
      34     1 C    6    8.592060    0.049580   -0.005400      4.00      12.0107
      35     1 C    6    9.313020   -1.170640    0.014390      4.00      12.0107
      36     1 C    6   10.712380   -1.182590    0.015260      4.00      12.0107
      37     1 C    6   11.417330    0.000000    0.000000      4.00      12.0107
      38     1 C    6   10.792700    1.267400   -0.026680      4.00      12.0107
      39     1 C    6   11.360950    2.522490   -0.046120      4.00      12.0107
      40     1 C    6   10.810620    3.781110   -0.069480      4.00      12.0107
      41     1 C    6   11.421210    5.049880   -0.079770      4.00      12.0107
      42     1 C    6   10.745480    6.241010   -0.117860      4.00      12.0107
      43     2 Na  11    2.086990    6.319710    2.499280      0.00      22.9898




 SCF PARAMETERS         Density guess:                                    ATOMIC
                        --------------------------------------------------------
                        max_scf:                                             100
                        max_scf_history:                                       0
                        max_diis:                                              4
                        --------------------------------------------------------
                        eps_scf:                                        3.00E-07
                        eps_scf_history:                                0.00E+00
                        eps_diis:                                       1.00E-01
                        eps_eigval:                                     1.00E-05
                        --------------------------------------------------------
                        level_shift [a.u.]:                                 0.00
                        added MOs                                       100  100
                        --------------------------------------------------------
                        Mixing method:                            BROYDEN_MIXING
                                                charge density mixing in g-space
                        --------------------------------------------------------
                        Smear method:                                FERMI_DIRAC
                        Electronic temperature [K]:                        300.0
                        Electronic temperature [a.u.]:                  9.50E-04
                        Accuracy threshold:                             1.00E-10
                        --------------------------------------------------------
                        Outer loop SCF in use 
                        No variables optimised in outer loop
                        eps_scf                                         1.00E-06
                        max_scf                                              150
                        DIIS optimization
                        DIIS buffer length                                     3
                        step_size                                       5.00E-01

 PW_GRID| Information for grid number                                          5
 PW_GRID| Grid distributed over                                    16 processors
 PW_GRID| Real space group dimensions                                    16    1
 PW_GRID| the grid is blocked:                                                NO
 PW_GRID| Cutoff [a.u.]                                                    250.0
 PW_GRID| spherical cutoff:                                                   NO
 PW_GRID|   Bounds   1            -90      89                Points:         180
 PW_GRID|   Bounds   2           -202     202                Points:         405
 PW_GRID|   Bounds   3           -270     269                Points:         540
 PW_GRID| Volume element (a.u.^3)  0.2642E-02     Volume (a.u.^3)    104010.7313
 PW_GRID| Grid span                                                    FULLSPACE
 PW_GRID|   Distribution                         Average         Max         Min
 PW_GRID|   G-Vectors                          2460375.0     2460420     2460240
 PW_GRID|   G-Rays                               13668.8       13669       13668
 PW_GRID|   Real Space Points                  2460375.0     2624400     2405700

 PW_GRID| Information for grid number                                          6
 PW_GRID| Grid distributed over                                    16 processors
 PW_GRID| Real space group dimensions                                    16    1
 PW_GRID| the grid is blocked:                                                NO
 PW_GRID| Cutoff [a.u.]                                                     83.3
 PW_GRID| spherical cutoff:                                                   NO
 PW_GRID|   Bounds   1            -50      49                Points:         100
 PW_GRID|   Bounds   2           -120     119                Points:         240
 PW_GRID|   Bounds   3           -160     159                Points:         320
 PW_GRID| Volume element (a.u.^3)  0.1354E-01     Volume (a.u.^3)    104010.7313
 PW_GRID| Grid span                                                    FULLSPACE
 PW_GRID|   Distribution                         Average         Max         Min
 PW_GRID|   G-Vectors                           480000.0      480400      479600
 PW_GRID|   G-Rays                                4800.0        4804        4796
 PW_GRID|   Real Space Points                   480000.0      537600      460800

 PW_GRID| Information for grid number                                          7
 PW_GRID| Grid distributed over                                    16 processors
 PW_GRID| Real space group dimensions                                    16    1
 PW_GRID| the grid is blocked:                                                NO
 PW_GRID| Cutoff [a.u.]                                                     27.8
 PW_GRID| spherical cutoff:                                                   NO
 PW_GRID|   Bounds   1            -30      29                Points:          60
 PW_GRID|   Bounds   2            -67      67                Points:         135
 PW_GRID|   Bounds   3            -90      89                Points:         180
 PW_GRID| Volume element (a.u.^3)  0.7134E-01     Volume (a.u.^3)    104010.7313
 PW_GRID| Grid span                                                    FULLSPACE
 PW_GRID|   Distribution                         Average         Max         Min
 PW_GRID|   G-Vectors                            91125.0       91260       91020
 PW_GRID|   G-Rays                                1518.8        1521        1517
 PW_GRID|   Real Space Points                    91125.0       97200       72900

 PW_GRID| Information for grid number                                          8
 PW_GRID| Grid distributed over                                    16 processors
 PW_GRID| Real space group dimensions                                    16    1
 PW_GRID| the grid is blocked:                                                NO
 PW_GRID| Cutoff [a.u.]                                                      9.3
 PW_GRID| spherical cutoff:                                                   NO
 PW_GRID|   Bounds   1            -18      17                Points:          36
 PW_GRID|   Bounds   2            -40      39                Points:          80
 PW_GRID|   Bounds   3            -54      53                Points:         108
 PW_GRID| Volume element (a.u.^3)  0.3344         Volume (a.u.^3)    104010.7313
 PW_GRID| Grid span                                                    FULLSPACE
 PW_GRID|   Distribution                         Average         Max         Min
 PW_GRID|   G-Vectors                            19440.0       19548       19332
 PW_GRID|   G-Rays                                 540.0         543         537
 PW_GRID|   Real Space Points                    19440.0       25920       17280

 POISSON| Solver                                                        PERIODIC
 POISSON| Periodicity                                                        XYZ

 RS_GRID| Information for grid number                                          5
 RS_GRID|   Bounds   1            -90      89                Points:         180
 RS_GRID|   Bounds   2           -202     202                Points:         405
 RS_GRID|   Bounds   3           -270     269                Points:         540
 RS_GRID| Real space distribution over                                  4 groups
 RS_GRID| Real space distribution along direction                              2
 RS_GRID| Border size                                                         23
 RS_GRID| Real space distribution over                                  4 groups
 RS_GRID| Real space distribution along direction                              3
[...]
    66 Broy./Diag. 0.10E+00    8.6     0.00003961      -283.9815464648 -5.62E-06
    67 Broy./Diag. 0.10E+00    8.6     0.00002728      -283.9815363248  1.01E-05
    68 Broy./Diag. 0.10E+00    8.6     0.00001160      -283.9815363709 -4.61E-08
    69 Broy./Diag. 0.10E+00    8.6     0.00003086      -283.9815333056  3.07E-06
    70 Broy./Diag. 0.10E+00    8.6     0.00002131      -283.9815338484 -5.43E-07
    71 Broy./Diag. 0.10E+00    8.6     0.00001664      -283.9815352191 -1.37E-06
    72 Broy./Diag. 0.10E+00    8.6     0.00001208      -283.9815345100  7.09E-07
    73 Broy./Diag. 0.10E+00    8.6     0.00000689      -283.9815354690 -9.59E-07
    74 Broy./Diag. 0.10E+00    8.6     0.00010226      -283.9815371364 -1.67E-06
    75 Broy./Diag. 0.10E+00    8.6     0.00005063      -283.9815137487  2.34E-05
    76 Broy./Diag. 0.10E+00    8.6     0.00008824      -283.9815232953 -9.55E-06
    77 Broy./Diag. 0.10E+00    8.6     0.00014778      -283.9815235250 -2.30E-07
    78 Broy./Diag. 0.10E+00    8.6     0.00012700      -283.9815207979  2.73E-06
    79 Broy./Diag. 0.10E+00    8.6     0.00003855      -283.9815308245 -1.00E-05
    80 Broy./Diag. 0.10E+00    8.6     0.00008633      -283.9815369279 -6.10E-06
    81 Broy./Diag. 0.10E+00    8.6     0.00007668      -283.9815339658  2.96E-06
    82 Broy./Diag. 0.10E+00    8.6     0.00011380      -283.9815487499 -1.48E-05
    83 Broy./Diag. 0.10E+00    8.6     0.00016876      -283.9815477576  9.92E-07
    84 Broy./Diag. 0.10E+00    8.6     0.00009906      -283.9815357633  1.20E-05
    85 Broy./Diag. 0.10E+00    8.6     0.00001481      -283.9815435253 -7.76E-06
    86 Broy./Diag. 0.10E+00    8.6     0.00006852      -283.9815452117 -1.69E-06
    87 Broy./Diag. 0.10E+00    8.5     0.00008888      -283.9815488324 -3.62E-06
    88 Broy./Diag. 0.10E+00    8.6     0.00007463      -283.9815418085  7.02E-06
    89 Broy./Diag. 0.10E+00    8.6     0.00002402      -283.9815436435 -1.84E-06
    90 Broy./Diag. 0.10E+00    8.6     0.00001504      -283.9815397166  3.93E-06
    91 Broy./Diag. 0.10E+00    8.6     0.00001112      -283.9815345524  5.16E-06
    92 Broy./Diag. 0.10E+00    8.6     0.00001383      -283.9815363238 -1.77E-06
    93 Broy./Diag. 0.10E+00    8.6     0.00002202      -283.9815316790  4.64E-06
    94 Broy./Diag. 0.10E+00    8.6     0.00003089      -283.9815341393 -2.46E-06
    95 Broy./Diag. 0.10E+00    8.6     0.00001072      -283.9815315181  2.62E-06
    96 Broy./Diag. 0.10E+00    8.6     0.00002658      -283.9815345302 -3.01E-06
    97 Broy./Diag. 0.10E+00    8.6     0.00000448      -283.9815361828 -1.65E-06
    98 Broy./Diag. 0.10E+00    8.6     0.00003219      -283.9815364318 -2.49E-07
    99 Broy./Diag. 0.10E+00    8.6     0.00004733      -283.9815430610 -6.63E-06
   100 Broy./Diag. 0.10E+00    8.6     0.00002291      -283.9815390630  4.00E-06

  Leaving inner SCF loop after reaching   100 steps.


  Electronic density on regular grids:       -177.0000012774       -0.0000012774
  Core density on regular grids:              176.9999999998       -0.0000000002
  Total charge density on r-space grids:       -0.0000012776
  Total charge density g-space grids:          -0.0000012776

  Overlap energy of the core charge distribution:               0.00000836868231
  Self energy of the core charge distribution:               -656.67682311856504
  Core Hamiltonian energy:                                    203.32040672755460
  Hartree energy:                                             247.60967575957667
  Exchange-correlation energy:                                -78.15386716362076
  Dispersion energy:                                           -0.07782657454377
  Electronic entropic energy:                                  -0.00311313201719
  Fermi energy:                                                -0.14401882938215

  Total energy:                                              -283.98153906302576

  outer SCF iter =   31 RMS gradient =   0.23E-04 energy =       -283.9815390630
     1 Broy./Diag. 0.10E+00   12.6     0.00036835      -283.9815173620  2.17E-05
     2 Broy./Diag. 0.10E+00    8.6     0.00027276      -283.9815931288 -7.58E-05
     3 Broy./Diag. 0.10E+00    8.6     0.00004839      -283.9815474569  4.57E-05
     4 Broy./Diag. 0.10E+00    8.5     0.00002297      -283.9815500544 -2.60E-06
     5 Broy./Diag. 0.10E+00    8.6     0.00003606      -283.9815456522  4.40E-06
     6 Broy./Diag. 0.10E+00    8.6     0.00003826      -283.9815440134  1.64E-06
     7 Broy./Diag. 0.10E+00    8.6     0.00002734      -283.9815512740 -7.26E-06
     8 Broy./Diag. 0.10E+00    8.6     0.00001905      -283.9815482993  2.97E-06
     9 Broy./Diag. 0.10E+00    8.6     0.00008254      -283.9815501668 -1.87E-06
    10 Broy./Diag. 0.10E+00    8.5     0.00002179      -283.9815434725  6.69E-06
    11 Broy./Diag. 0.10E+00    8.6     0.00004801      -283.9815461472 -2.67E-06
    12 Broy./Diag. 0.10E+00    8.7     0.00002614      -283.9815402078  5.94E-06
    13 Broy./Diag. 0.10E+00    8.6     0.00004963      -283.9815400422  1.66E-07
    14 Broy./Diag. 0.10E+00    8.6     0.00003173      -283.9815294689  1.06E-05
    15 Broy./Diag. 0.10E+00    8.6     0.00003153      -283.9815237405  5.73E-06
    16 Broy./Diag. 0.10E+00    8.5     0.00002035      -283.9815193117  4.43E-06
    17 Broy./Diag. 0.10E+00    8.6     0.00008819      -283.9815255037 -6.19E-06
    18 Broy./Diag. 0.10E+00    8.6     0.00033575      -283.9815206470  4.86E-06
    19 Broy./Diag. 0.10E+00    8.6     0.00002956      -283.9815233448 -2.70E-06
    20 Broy./Diag. 0.10E+00    8.6     0.00002490      -283.9815190542  4.29E-06
    21 Broy./Diag. 0.10E+00    8.6     0.00002396      -283.9815252850 -6.23E-06
    22 Broy./Diag. 0.10E+00    8.6     0.00006117      -283.9815356419 -1.04E-05
    23 Broy./Diag. 0.10E+00    8.6     0.00007496      -283.9815213494  1.43E-05
    24 Broy./Diag. 0.10E+00    8.6     0.00007256      -283.9815261116 -4.76E-06
    25 Broy./Diag. 0.10E+00    8.6     0.00004661      -283.9815416921 -1.56E-05
    26 Broy./Diag. 0.10E+00    8.6     0.00003582      -283.9815230561  1.86E-05
    27 Broy./Diag. 0.10E+00    8.6     0.00002640      -283.9815252812 -2.23E-06
    28 Broy./Diag. 0.10E+00    8.7     0.00002725      -283.9815200692  5.21E-06
    29 Broy./Diag. 0.10E+00    8.6     0.00003926      -283.9815214012 -1.33E-06
    30 Broy./Diag. 0.10E+00    8.6     0.00007606      -283.9815312755 -9.87E-06
    31 Broy./Diag. 0.10E+00    8.5     0.00008084      -283.9815291234  2.15E-06
    32 Broy./Diag. 0.10E+00    8.5     0.00003322      -283.9815266541  2.47E-06
    33 Broy./Diag. 0.10E+00    8.5     0.00005178      -283.9815264639  1.90E-07
    34 Broy./Diag. 0.10E+00    8.5     0.00007512      -283.9815271766 -7.13E-07
    35 Broy./Diag. 0.10E+00    8.5     0.00003308      -283.9815308690 -3.69E-06
    36 Broy./Diag. 0.10E+00    8.5     0.00004086      -283.9815242208  6.65E-06
    37 Broy./Diag. 0.10E+00    8.6     0.00001955      -283.9815250846 -8.64E-07
    38 Broy./Diag. 0.10E+00    8.6     0.00001451      -283.9815295898 -4.51E-06
    39 Broy./Diag. 0.10E+00    8.5     0.00002630      -283.9815239519  5.64E-06
    40 Broy./Diag. 0.10E+00    8.6     0.00001459      -283.9815260551 -2.10E-06
    41 Broy./Diag. 0.10E+00    8.5     0.00002251      -283.9815217988  4.26E-06
    42 Broy./Diag. 0.10E+00    8.5     0.00002402      -283.9815162096  5.59E-06
    43 Broy./Diag. 0.10E+00    8.6     0.00004841      -283.9815360425 -1.98E-05
    44 Broy./Diag. 0.10E+00    8.5     0.00008375      -283.9815202764  1.58E-05
    45 Broy./Diag. 0.10E+00    8.5     0.00005541      -283.9815341471 -1.39E-05
    46 Broy./Diag. 0.10E+00    8.5     0.00002007      -283.9815254969  8.65E-06
    47 Broy./Diag. 0.10E+00    8.5     0.00002362      -283.9815273208 -1.82E-06
    48 Broy./Diag. 0.10E+00    8.5     0.00007344      -283.9815294332 -2.11E-06
    49 Broy./Diag. 0.10E+00    8.5     0.00004032      -283.9815252933  4.14E-06
    50 Broy./Diag. 0.10E+00    8.5     0.00001792      -283.9815358716 -1.06E-05
    51 Broy./Diag. 0.10E+00    8.5     0.00004670      -283.9815407834 -4.91E-06
    52 Broy./Diag. 0.10E+00    8.6     0.00004202      -283.9815474737 -6.69E-06
    53 Broy./Diag. 0.10E+00    8.6     0.00009119      -283.9815494555 -1.98E-06
    54 Broy./Diag. 0.10E+00    8.5     0.00010482      -283.9815477869  1.67E-06
    55 Broy./Diag. 0.10E+00    8.6     0.00001439      -283.9815521601 -4.37E-06
    56 Broy./Diag. 0.10E+00    8.6     0.00003167      -283.9815480530  4.11E-06
    57 Broy./Diag. 0.10E+00    8.6     0.00002870      -283.9815470002  1.05E-06
    58 Broy./Diag. 0.10E+00    8.5     0.00003070      -283.9815415947  5.41E-06
    59 Broy./Diag. 0.10E+00    8.6     0.00002161      -283.9815480859 -6.49E-06
    60 Broy./Diag. 0.10E+00    8.5     0.00003263      -283.9815374790  1.06E-05
    61 Broy./Diag. 0.10E+00    8.5     0.00000130      -283.9815440082 -6.53E-06
    62 Broy./Diag. 0.10E+00    8.5     0.00005948      -283.9815470352 -3.03E-06
    63 Broy./Diag. 0.10E+00    8.6     0.00003464      -283.9815372093  9.83E-06
    64 Broy./Diag. 0.10E+00    8.5     0.00001589      -283.9815431393 -5.93E-06
    65 Broy./Diag. 0.10E+00    8.6     0.00003481      -283.9815436247 -4.85E-07
    66 Broy./Diag. 0.10E+00    8.5     0.00001256      -283.9815474871 -3.86E-06
    67 Broy./Diag. 0.10E+00    8.5     0.00003369      -283.9815450290  2.46E-06
    68 Broy./Diag. 0.10E+00    8.5     0.00007614      -283.9815303042  1.47E-05
    69 Broy./Diag. 0.10E+00    8.5     0.00003968      -283.9815450872 -1.48E-05
    70 Broy./Diag. 0.10E+00    8.5     0.00007130      -283.9815534618 -8.37E-06
    71 Broy./Diag. 0.10E+00    8.5     0.00006123      -283.9815502566  3.21E-06
    72 Broy./Diag. 0.10E+00    8.5     0.00003416      -283.9815527843 -2.53E-06
    73 Broy./Diag. 0.10E+00    8.5     0.00002433      -283.9815337489  1.90E-05
    74 Broy./Diag. 0.10E+00    8.5     0.00003511      -283.9815308039  2.94E-06
    75 Broy./Diag. 0.10E+00    8.6     0.00004484      -283.9815306103  1.94E-07
    76 Broy./Diag. 0.10E+00    8.5     0.00003297      -283.9815424807 -1.19E-05
    77 Broy./Diag. 0.10E+00    8.5     0.00004441      -283.9815355004  6.98E-06
    78 Broy./Diag. 0.10E+00    8.5     0.00002441      -283.9815493463 -1.38E-05
    79 Broy./Diag. 0.10E+00    8.5     0.00002789      -283.9815552530 -5.91E-06
    80 Broy./Diag. 0.10E+00    8.5     0.00013339      -283.9815359019  1.94E-05
    81 Broy./Diag. 0.10E+00    8.5     0.00007739      -283.9815450453 -9.14E-06
    82 Broy./Diag. 0.10E+00    8.5     0.00006964      -283.9815253765  1.97E-05
    83 Broy./Diag. 0.10E+00    8.5     0.00002209      -283.9815353753 -1.00E-05
    84 Broy./Diag. 0.10E+00    8.6     0.00000656      -283.9815356882 -3.13E-07
    85 Broy./Diag. 0.10E+00    8.6     0.00024783      -283.9815384800 -2.79E-06
    86 Broy./Diag. 0.10E+00    8.5     0.00015331      -283.9815662683 -2.78E-05
    87 Broy./Diag. 0.10E+00    8.6     0.00023192      -283.9815753073 -9.04E-06
    88 Broy./Diag. 0.10E+00    8.6     0.00013600      -283.9815398691  3.54E-05
    89 Broy./Diag. 0.10E+00    8.6     0.00012607      -283.9815599874 -2.01E-05
    90 Broy./Diag. 0.10E+00    8.6     0.00009995      -283.9815441289  1.59E-05
    91 Broy./Diag. 0.10E+00    8.6     0.00014570      -283.9815444798 -3.51E-07
    92 Broy./Diag. 0.10E+00    8.6     0.00009719      -283.9815279996  1.65E-05
    93 Broy./Diag. 0.10E+00    8.6     0.00012606      -283.9815502328 -2.22E-05
    94 Broy./Diag. 0.10E+00    8.5     0.00004502      -283.9815228399  2.74E-05
    95 Broy./Diag. 0.10E+00    8.6     0.00015177      -283.9815214093  1.43E-06
    96 Broy./Diag. 0.10E+00    8.6     0.00002662      -283.9815251286 -3.72E-06
    97 Broy./Diag. 0.10E+00    8.6     0.00010848      -283.9815215738  3.55E-06
    98 Broy./Diag. 0.10E+00    8.6     0.00019389      -283.9815557052 -3.41E-05
    99 Broy./Diag. 0.10E+00    8.6     0.00023564      -283.9815251705  3.05E-05
   100 Broy./Diag. 0.10E+00    8.5     0.00010769      -283.9815709018 -4.57E-05

  Leaving inner SCF loop after reaching   100 steps.


  Electronic density on regular grids:       -177.0000012774       -0.0000012774
  Core density on regular grids:              176.9999999998       -0.0000000002
  Total charge density on r-space grids:       -0.0000012776
  Total charge density g-space grids:          -0.0000012776

  Overlap energy of the core charge distribution:               0.00000836868231
  Self energy of the core charge distribution:               -656.67682311856504
  Core Hamiltonian energy:                                    203.32037882660035
  Hartree energy:                                             247.60967214241532
  Exchange-correlation energy:                                -78.15386694994280
  Dispersion energy:                                           -0.07782657454377
  Electronic entropic energy:                                  -0.00311340514585
  Fermi energy:                                                -0.14401807926024

  Total energy:                                              -283.98157090183366

  outer SCF iter =   32 RMS gradient =   0.11E-03 energy =       -283.9815709018
     1 Broy./Diag. 0.10E+00   12.4     0.00059643      -283.9815172605  5.36E-05
     2 Broy./Diag. 0.10E+00    8.6     0.00067812      -283.9815267523 -9.49E-06
     3 Broy./Diag. 0.10E+00    8.6     0.00010333      -283.9816258738 -9.91E-05
     4 Broy./Diag. 0.10E+00    8.5     0.00026752      -283.9816197327  6.14E-06
     5 Broy./Diag. 0.10E+00    8.5     0.00006731      -283.9815826540  3.71E-05
     6 Broy./Diag. 0.10E+00    8.5     0.00005661      -283.9815449579  3.77E-05
     7 Broy./Diag. 0.10E+00    8.6     0.00003588      -283.9815278375  1.71E-05
     8 Broy./Diag. 0.10E+00    8.6     0.00006509      -283.9815304889 -2.65E-06
     9 Broy./Diag. 0.10E+00    8.6     0.00001045      -283.9815237859  6.70E-06
    10 Broy./Diag. 0.10E+00    8.5     0.00010941      -283.9815283744 -4.59E-06
    11 Broy./Diag. 0.10E+00    8.5     0.00012793      -283.9815210584  7.32E-06
    12 Broy./Diag. 0.10E+00    8.6     0.00005305      -283.9815223436 -1.29E-06
    13 Broy./Diag. 0.10E+00    8.5     0.00007676      -283.9815389604 -1.66E-05
    14 Broy./Diag. 0.10E+00    8.5     0.00005629      -283.9815580455 -1.91E-05
    15 Broy./Diag. 0.10E+00    8.5     0.00009471      -283.9815384114  1.96E-05
    16 Broy./Diag. 0.10E+00    8.6     0.00004826      -283.9815652177 -2.68E-05
    17 Broy./Diag. 0.10E+00    8.6     0.00006754      -283.9815476367  1.76E-05
    18 Broy./Diag. 0.10E+00    8.5     0.00021112      -283.9815572539 -9.62E-06
    19 Broy./Diag. 0.10E+00    8.5     0.00003312      -283.9815627589 -5.51E-06
    20 Broy./Diag. 0.10E+00    8.5     0.00003020      -283.9815534789  9.28E-06
    21 Broy./Diag. 0.10E+00    8.5     0.00006386      -283.9815609821 -7.50E-06
    22 Broy./Diag. 0.10E+00    8.5     0.00002651      -283.9815493674  1.16E-05
    23 Broy./Diag. 0.10E+00    8.6     0.00001935      -283.9815522550 -2.89E-06
    24 Broy./Diag. 0.10E+00    8.5     0.00001764      -283.9815396511  1.26E-05
    25 Broy./Diag. 0.10E+00    8.5     0.00006899      -283.9815394176  2.33E-07
    26 Broy./Diag. 0.10E+00    8.5     0.00004481      -283.9815371851  2.23E-06
    27 Broy./Diag. 0.10E+00    8.5     0.00005395      -283.9815303364  6.85E-06
    28 Broy./Diag. 0.10E+00    8.6     0.00007409      -283.9815436585 -1.33E-05
    29 Broy./Diag. 0.10E+00    8.6     0.00004028      -283.9815530000 -9.34E-06
    30 Broy./Diag. 0.10E+00    8.5     0.00003609      -283.9815476292  5.37E-06
    31 Broy./Diag. 0.10E+00    8.6     0.00006706      -283.9815488660 -1.24E-06
    32 Broy./Diag. 0.10E+00    8.6     0.00010080      -283.9815541683 -5.30E-06
    33 Broy./Diag. 0.10E+00    8.6     0.00002884      -283.9815583730 -4.20E-06
    34 Broy./Diag. 0.10E+00    8.6     0.00004183      -283.9815613482 -2.98E-06
    35 Broy./Diag. 0.10E+00    8.6     0.00001660      -283.9815619563 -6.08E-07
    36 Broy./Diag. 0.10E+00    8.6     0.00001457      -283.9815658839 -3.93E-06
    37 Broy./Diag. 0.10E+00    8.6     0.00001961      -283.9815693897 -3.51E-06
    38 Broy./Diag. 0.10E+00    8.6     0.00004188      -283.9815659047  3.49E-06
    39 Broy./Diag. 0.10E+00    8.6     0.00003069      -283.9815562453  9.66E-06
    40 Broy./Diag. 0.10E+00    8.6     0.00006317      -283.9815638539 -7.61E-06
    41 Broy./Diag. 0.10E+00    8.6     0.00003492      -283.9815646020 -7.48E-07
    42 Broy./Diag. 0.10E+00    8.6     0.00003865      -283.9815632076  1.39E-06
    43 Broy./Diag. 0.10E+00    8.6     0.00004771      -283.9815595323  3.68E-06
    44 Broy./Diag. 0.10E+00    8.6     0.00003918      -283.9815675349 -8.00E-06
    45 Broy./Diag. 0.10E+00    8.6     0.00002837      -283.9815729874 -5.45E-06
    46 Broy./Diag. 0.10E+00    8.6     0.00000088      -283.9815698504  3.14E-06
    47 Broy./Diag. 0.10E+00    8.5     0.00012784      -283.9815680980  1.75E-06
    48 Broy./Diag. 0.10E+00    8.5     0.00008682      -283.9815671018  9.96E-07
    49 Broy./Diag. 0.10E+00    8.6     0.00006341      -283.9815558178  1.13E-05
    50 Broy./Diag. 0.10E+00    8.6     0.00003135      -283.9815518560  3.96E-06
    51 Broy./Diag. 0.10E+00    8.6     0.00003012      -283.9815528437 -9.88E-07
    52 Broy./Diag. 0.10E+00    8.6     0.00001070      -283.9815469400  5.90E-06
    53 Broy./Diag. 0.10E+00    8.6     0.00003178      -283.9815468888  5.12E-08
    54 Broy./Diag. 0.10E+00    8.6     0.00003338      -283.9815495351 -2.65E-06
    55 Broy./Diag. 0.10E+00    8.5     0.00004191      -283.9815586119 -9.08E-06
    56 Broy./Diag. 0.10E+00    8.6     0.00002015      -283.9815534337  5.18E-06
    57 Broy./Diag. 0.10E+00    8.6     0.00003859      -283.9815474760  5.96E-06
    58 Broy./Diag. 0.10E+00    8.6     0.00009165      -283.9815603628 -1.29E-05
    59 Broy./Diag. 0.10E+00    8.6     0.00012820      -283.9815532418  7.12E-06
    60 Broy./Diag. 0.10E+00    8.6     0.00002455      -283.9815704693 -1.72E-05
    61 Broy./Diag. 0.10E+00    8.5     0.00004175      -283.9815749456 -4.48E-06
    62 Broy./Diag. 0.10E+00    8.6     0.00020144      -283.9815758900 -9.44E-07
    63 Broy./Diag. 0.10E+00    8.6     0.00003534      -283.9815634542  1.24E-05
    64 Broy./Diag. 0.10E+00    8.6     0.00010489      -283.9815555487  7.91E-06
    65 Broy./Diag. 0.10E+00    8.5     0.00011185      -283.9815791489 -2.36E-05
    66 Broy./Diag. 0.10E+00    8.5     0.00002424      -283.9815637845  1.54E-05
    67 Broy./Diag. 0.10E+00    8.6     0.00000817      -283.9815625077  1.28E-06
    68 Broy./Diag. 0.10E+00    8.6     0.00002655      -283.9815652032 -2.70E-06
    69 Broy./Diag. 0.10E+00    8.6     0.00002930      -283.9815711887 -5.99E-06
    70 Broy./Diag. 0.10E+00    8.6     0.00003189      -283.9815671471  4.04E-06
    71 Broy./Diag. 0.10E+00    8.5     0.00001050      -283.9815665836  5.64E-07
    72 Broy./Diag. 0.10E+00    8.6     0.00000541      -283.9815659900  5.94E-07
    73 Broy./Diag. 0.10E+00    8.6     0.00001602      -283.9815660871 -9.71E-08
    74 Broy./Diag. 0.10E+00    8.6     0.00003576      -283.9815734256 -7.34E-06
    75 Broy./Diag. 0.10E+00    8.6     0.00002863      -283.9815672510  6.17E-06
    76 Broy./Diag. 0.10E+00    8.6     0.00001320      -283.9815699598 -2.71E-06
    77 Broy./Diag. 0.10E+00    8.6     0.00001667      -283.9815724845 -2.52E-06
    78 Broy./Diag. 0.10E+00    8.6     0.00003464      -283.9815743239 -1.84E-06
    79 Broy./Diag. 0.10E+00    8.6     0.00005621      -283.9815761789 -1.85E-06
    80 Broy./Diag. 0.10E+00    8.6     0.00003949      -283.9815854407 -9.26E-06
-------------------------------------------------------
Primary job  terminated normally, but 1 process returned
a non-zero exit code. Per user-direction, the job has been aborted.
-------------------------------------------------------
