 DBCSR| CPU Multiplication driver                                           BLAS (U)
 DBCSR| Multrec recursion limit                                              512 (U)
 DBCSR| Multiplication stack size                                           1000 (D)
 DBCSR| Maximum elements for images                                    UNLIMITED (U)
 DBCSR| Multiplicative factor virtual images                                   1 (U)
 DBCSR| Use multiplication densification                                       T (D)
 DBCSR| Multiplication size stacks                                             3 (U)
 DBCSR| Use memory pool for CPU allocation                                     F (U)
 DBCSR| Number of 3D layers                                               SINGLE (U)
 DBCSR| Use MPI memory allocation                                              F (U)
 DBCSR| Use RMA algorithm                                                      F (U)
 DBCSR| Use Communication thread                                               T (U)
 DBCSR| Communication thread load                                             87 (D)
 DBCSR| MPI: My process id                                                     0
 DBCSR| MPI: Number of processes                                              16
 DBCSR| OMP: Current number of threads                                         1
 DBCSR| OMP: Max number of threads                                             1
 DBCSR| Split modifier for TAS multiplication algorithm                  1.0E+00 (U)


  **** **** ******  **  PROGRAM STARTED AT               2025-07-10 13:08:24.320
 ***** ** ***  *** **   PROGRAM STARTED ON                            sebnode120
 **    ****   ******    PROGRAM STARTED BY                                luehrs
 ***** **    ** ** **   PROGRAM PROCESS ID                                633435
  **** **  *******  **  PROGRAM STARTED IN /home/luehrs/PhD/Sodium_batteries/Sod
                                           ium-graphene-edge/Armchair_2/No_hydro
                                           gen

 CP2K| version string:                                       CP2K version 2023.1
 CP2K| source code revision number:                                  git:b888bd8
 CP2K| cp2kflags: omp libint fftw3 libxc elpa parallel scalapack spglib         
 CP2K| is freely available from                            https://www.cp2k.org/
 CP2K| Program compiled at                          Tue Jan 10 19:52:03 UTC 2023
 CP2K| Program compiled on                                            x86-ubc-01
 CP2K| Program compiled for                                Linux-x86_64-gfortran
 CP2K| Data directory path                                       /usr/share/cp2k
 CP2K| Input file name                                        input.armchair.inp

 GLOBAL| Force Environment number                                              1
 GLOBAL| Basis set file name                                      ./BASIS_MOLOPT
 GLOBAL| Potential file name                                    ./GTH_POTENTIALS
 GLOBAL| MM Potential file name                                     MM_POTENTIAL
 GLOBAL| Coordinate file name           ./graphene_armchair_no_hydrogen_PBE_rela
 GLOBAL| Method name                                                        CP2K
 GLOBAL| Project name                                 graphene_armchair_BSSE_PBE
 GLOBAL| Run type                                                           BSSE
 GLOBAL| FFT library                                                       FFTW3
 GLOBAL| Diagonalization library                                            ELPA
 GLOBAL| DGEMM library                                                      BLAS
 GLOBAL| Minimum number of eigenvectors for ELPA usage                        16
 GLOBAL| Orthonormality check for eigenvectors                          DISABLED
 GLOBAL| Matrix multiplication library                                 ScaLAPACK
 GLOBAL| All-to-all communication in single precision                          F
 GLOBAL| FFTs using library dependent lengths                                  F
 GLOBAL| Grid backend                                                       AUTO
 GLOBAL| Global print level                                                  LOW
 GLOBAL| MPI I/O enabled                                                       T
 GLOBAL| Total number of message passing processes                            16
 GLOBAL| Number of threads for this process                                    1
 GLOBAL| This output is from process                                           0
 GLOBAL| Stack size for threads created by OpenMP (OMP_STACKSIZE)        default
 GLOBAL| CPU model name                 Intel(R) Xeon(R) Gold 6144 CPU @ 3.50GHz

 MEMORY| system memory details [Kb]
 MEMORY|                        rank 0           min           max       average
 MEMORY| MemTotal             65585096      65585096      65585096      65585096
 MEMORY| MemFree              62853804      62853804      62853804      62853804
 MEMORY| Buffers                385172        385172        385172        385172
 MEMORY| Cached                 392000        392000        392000        392000
 MEMORY| Slab                   225044        225044        225044        225044
 MEMORY| SReclaimable            84992         84992         84992         84992
 MEMORY| MemLikelyFree        63715968      63715968      63715968      63715968


 GENERATE|  Preliminary Number of Bonds generated:                             0
 GENERATE|  Achieved consistency in connectivity generation.

 *******************************************************************************
 *******************************************************************************
 **                                                                           **
 **     #####                         ##              ##                      **
 **    ##   ##            ##          ##              ##                      **
 **   ##     ##                       ##            ######                    **
 **   ##     ##  ##   ##  ##   #####  ##  ##   ####   ##    #####    #####    **
 **   ##     ##  ##   ##  ##  ##      ## ##   ##      ##   ##   ##  ##   ##   **
 **   ##  ## ##  ##   ##  ##  ##      ####     ###    ##   ######   ######    **
 **    ##  ###   ##   ##  ##  ##      ## ##      ##   ##   ##       ##        **
 **     #######   #####   ##   #####  ##  ##  ####    ##    #####   ##        **
 **           ##                                                    ##        **
 **                                                                           **
 **                                                ... make the atoms dance   **
 **                                                                           **
 **            Copyright (C) by CP2K developers group (2000-2022)             **
 **                      J. Chem. Phys. 152, 194103 (2020)                    **
 **                                                                           **
 *******************************************************************************


 TOTAL NUMBERS AND MAXIMUM NUMBERS

  Total number of            - Atomic kinds:                                   2
                             - Atoms:                                         43
                             - Shell sets:                                    43
                             - Shells:                                       215
                             - Primitive Cartesian functions:                217
                             - Cartesian basis functions:                    597
                             - Spherical basis functions:                    555

  Maximum angular momentum of- Orbital basis functions:                        2
                             - Local part of the GTH pseudopotential:          2
                             - Non-local part of the GTH pseudopotential:      1


 SCF PARAMETERS         Density guess:                                    ATOMIC
                        --------------------------------------------------------
                        max_scf:                                             100
                        max_scf_history:                                       0
                        max_diis:                                              4
                        --------------------------------------------------------
                        eps_scf:                                        3.00E-07
                        eps_scf_history:                                0.00E+00
                        eps_diis:                                       1.00E-01
                        eps_eigval:                                     1.00E-05
                        --------------------------------------------------------
                        level_shift [a.u.]:                             0.000000
                        added MOs                                       100  100
                        --------------------------------------------------------
                        Mixing method:                            BROYDEN_MIXING
                                                charge density mixing in g-space
                        --------------------------------------------------------
                        Smear method:                                FERMI_DIRAC
                        Electronic temperature [K]:                        300.0
                        Electronic temperature [a.u.]:                  9.50E-04
                        Accuracy threshold:                             1.00E-10
                        --------------------------------------------------------
                        Outer loop SCF in use 
                        No variables optimised in outer loop
                        eps_scf                                         1.00E-06
                        max_scf                                              150
                        DIIS optimization
                        DIIS buffer length                                     3
                        step_size                                       5.00E-01

 -------------------------------------------------------------------------------
 -                                                                             -
 -  BSSE CALCULATION         FRAGMENT CONF: 10        FRAGMENT SUBCONF: 10     -
 -                           CHARGE =     0           MULTIPLICITY =     0     -
 -                                                                             -
 -                 ATOM INDEX                              ATOM NAME           -
 -                 ----------                              ---------           -
 -                      1                                   C                  -
 -                      2                                   C                  -
 -                      3                                   C                  -
 -                      4                                   C                  -
 -                      5                                   C                  -
 -                      6                                   C                  -
 -                      7                                   C                  -
 -                      8                                   C                  -
 -                      9                                   C                  -
 -                     10                                   C                  -
 -                     11                                   C                  -
 -                     12                                   C                  -
 -                     13                                   C                  -
 -                     14                                   C                  -
 -                     15                                   C                  -
 -                     16                                   C                  -
 -                     17                                   C                  -
 -                     18                                   C                  -
 -                     19                                   C                  -
 -                     20                                   C                  -
 -                     21                                   C                  -
 -                     22                                   C                  -
 -                     23                                   C                  -
 -                     24                                   C                  -
 -                     25                                   C                  -
 -                     26                                   C                  -
 -                     27                                   C                  -
 -                     28                                   C                  -
 -                     29                                   C                  -
 -                     30                                   C                  -
 -                     31                                   C                  -
 -                     32                                   C                  -
 -                     33                                   C                  -
 -                     34                                   C                  -
 -                     35                                   C                  -
 -                     36                                   C                  -
 -                     37                                   C                  -
 -                     38                                   C                  -
 -                     39                                   C                  -
 -                     40                                   C                  -
 -                     41                                   C                  -
 -                     42                                   C                  -
 -------------------------------------------------------------------------------

 *******************************************************************************
 *******************************************************************************
 **                                                                           **
 **     #####                         ##              ##                      **
 **    ##   ##            ##          ##              ##                      **
 **   ##     ##                       ##            ######                    **
 **   ##     ##  ##   ##  ##   #####  ##  ##   ####   ##    #####    #####    **
 **   ##     ##  ##   ##  ##  ##      ## ##   ##      ##   ##   ##  ##   ##   **
 **   ##  ## ##  ##   ##  ##  ##      ####     ###    ##   ######   ######    **
 **    ##  ###   ##   ##  ##  ##      ## ##      ##   ##   ##       ##        **
 **     #######   #####   ##   #####  ##  ##  ####    ##    #####   ##        **
 **           ##                                                    ##        **
 **                                                                           **
 **                                                ... make the atoms dance   **
 **                                                                           **
 **            Copyright (C) by CP2K developers group (2000-2022)             **
 **                      J. Chem. Phys. 152, 194103 (2020)                    **
 **                                                                           **
 *******************************************************************************


 TOTAL NUMBERS AND MAXIMUM NUMBERS

  Total number of            - Atomic kinds:                                   1
                             - Atoms:                                         42
                             - Shell sets:                                    42
                             - Shells:                                       210
                             - Primitive Cartesian functions:                210
                             - Cartesian basis functions:                    588
                             - Spherical basis functions:                    546

  Maximum angular momentum of- Orbital basis functions:                        2
                             - Local part of the GTH pseudopotential:          2
                             - Non-local part of the GTH pseudopotential:      0


 SCF PARAMETERS         Density guess:                                    ATOMIC
                        --------------------------------------------------------
                        max_scf:                                             100
                        max_scf_history:                                       0
                        max_diis:                                              4
                        --------------------------------------------------------
                        eps_scf:                                        3.00E-07
                        eps_scf_history:                                0.00E+00
                        eps_diis:                                       1.00E-01
                        eps_eigval:                                     1.00E-05
                        --------------------------------------------------------
                        level_shift [a.u.]:                             0.000000
                        added MOs                                       100  100
                        --------------------------------------------------------
                        Mixing method:                            BROYDEN_MIXING
                                                charge density mixing in g-space
                        --------------------------------------------------------
                        Smear method:                                FERMI_DIRAC
                        Electronic temperature [K]:                        300.0
                        Electronic temperature [a.u.]:                  9.50E-04
                        Accuracy threshold:                             1.00E-10
                        --------------------------------------------------------
                        Outer loop SCF in use 
                        No variables optimised in outer loop
                        eps_scf                                         1.00E-06
                        max_scf                                              150
                        DIIS optimization
                        DIIS buffer length                                     3
                        step_size                                       5.00E-01

 Spin 1

 Number of electrons:                                                         84
 Number of occupied orbitals:                                                 84
 Number of molecular orbitals:                                               184

 Spin 2

 Number of electrons:                                                         84
 Number of occupied orbitals:                                                 84
 Number of molecular orbitals:                                               184

 Number of orbital functions:                                                546
 Number of independent orbital functions:                                    546

 Extrapolation method: initial_guess


 SCF WAVEFUNCTION OPTIMIZATION

  Step     Update method      Time    Convergence         Total energy    Change
  ------------------------------------------------------------------------------
     1 NoMix/Diag. 0.10E+00    4.0     0.46344580      -236.0468780821 -2.36E+02
     2 Broy./Diag. 0.10E+00    8.2     0.01145125      -229.5816586533  6.47E+00
     3 Broy./Diag. 0.10E+00    8.6     0.06408221      -234.0647280854 -4.48E+00
     4 Broy./Diag. 0.10E+00    8.7     0.00818046      -236.6592892425 -2.59E+00
     5 Broy./Diag. 0.10E+00    8.9     0.02626758      -237.3245396097 -6.65E-01
     6 Broy./Diag. 0.10E+00    9.1     0.00437339      -237.5900554442 -2.66E-01
     7 Broy./Diag. 0.10E+00    9.3     0.01355903      -237.6790779518 -8.90E-02
     8 Broy./Diag. 0.10E+00    9.6     0.00449609      -237.7590573258 -8.00E-02
     9 Broy./Diag. 0.10E+00    9.9     0.00480472      -237.7920872640 -3.30E-02
    10 Broy./Diag. 0.10E+00   10.2     0.00395468      -237.8298201258 -3.77E-02
    11 Broy./Diag. 0.10E+00   10.6     0.00581551      -237.8491344636 -1.93E-02
    12 Broy./Diag. 0.10E+00   11.1     0.00394402      -237.8811598267 -3.20E-02
    13 Broy./Diag. 0.10E+00   11.5     0.00161833      -237.8866194922 -5.46E-03
    14 Broy./Diag. 0.10E+00   12.0     0.00080378      -237.9067526513 -2.01E-02
    15 Broy./Diag. 0.10E+00   12.5     0.00083522      -237.9249369225 -1.82E-02
    16 Broy./Diag. 0.10E+00   14.0     0.00073701      -237.9391363548 -1.42E-02
    17 Broy./Diag. 0.10E+00   19.4     0.00082699      -237.9493674781 -1.02E-02
    18 Broy./Diag. 0.10E+00   14.0     0.00025738      -237.9567386941 -7.37E-03
    19 Broy./Diag. 0.10E+00   14.0     0.00021502      -237.9582733345 -1.53E-03
    20 Broy./Diag. 0.10E+00   14.0     0.00021033      -237.9602992263 -2.03E-03
    21 Broy./Diag. 0.10E+00   14.0     0.00029649      -237.9602883345  1.09E-05
    22 Broy./Diag. 0.10E+00   14.0     0.00019876      -237.9600547513  2.34E-04
    23 Broy./Diag. 0.10E+00   14.2     0.00006657      -237.9608154818 -7.61E-04
    24 Broy./Diag. 0.10E+00   14.1     0.00008299      -237.9631057825 -2.29E-03
    25 Broy./Diag. 0.10E+00   14.1     0.00007305      -237.9665562822 -3.45E-03
    26 Broy./Diag. 0.10E+00   14.1     0.00004367      -237.9690954152 -2.54E-03
    27 Broy./Diag. 0.10E+00   14.1     0.00006141      -237.9711097415 -2.01E-03
    28 Broy./Diag. 0.10E+00   14.0     0.00005185      -237.9724133450 -1.30E-03
    29 Broy./Diag. 0.10E+00   13.9     0.00004960      -237.9728149611 -4.02E-04
    30 Broy./Diag. 0.10E+00   14.4     0.00007492      -237.9728197350 -4.77E-06
    31 Broy./Diag. 0.10E+00   14.4     0.00004491      -237.9730126416 -1.93E-04
    32 Broy./Diag. 0.10E+00   14.4     0.00009735      -237.9730016220  1.10E-05
    33 Broy./Diag. 0.10E+00   14.3     0.00003762      -237.9731474048 -1.46E-04
    34 Broy./Diag. 0.10E+00   14.3     0.00008892      -237.9731307329  1.67E-05
    35 Broy./Diag. 0.10E+00   14.3     0.00004516      -237.9732260583 -9.53E-05
    36 Broy./Diag. 0.10E+00   14.0     0.00004847      -237.9731093054  1.17E-04
    37 Broy./Diag. 0.10E+00   14.4     0.00000619      -237.9730678990  4.14E-05
    38 Broy./Diag. 0.10E+00   14.4     0.00004723      -237.9730880149 -2.01E-05
    39 Broy./Diag. 0.10E+00   14.4     0.00000513      -237.9731481427 -6.01E-05
    40 Broy./Diag. 0.10E+00   14.5     0.00003291      -237.9732904856 -1.42E-04
    41 Broy./Diag. 0.10E+00   14.5     0.00002800      -237.9734307885 -1.40E-04
    42 Broy./Diag. 0.10E+00   14.4     0.00003157      -237.9735081614 -7.74E-05
    43 Broy./Diag. 0.10E+00   14.2     0.00002150      -237.9735580686 -4.99E-05
    44 Broy./Diag. 0.10E+00   14.7     0.00000928      -237.9735938479 -3.58E-05
    45 Broy./Diag. 0.10E+00   14.8     0.00003784      -237.9736076868 -1.38E-05
    46 Broy./Diag. 0.10E+00   14.8     0.00000235      -237.9736179670 -1.03E-05
    47 Broy./Diag. 0.10E+00   14.8     0.00002187      -237.9736253194 -7.35E-06
    48 Broy./Diag. 0.10E+00   14.7     0.00002229      -237.9736250194  3.00E-07
    49 Broy./Diag. 0.10E+00   14.6     0.00005917      -237.9736158090  9.21E-06
    50 Broy./Diag. 0.10E+00   14.2     0.00002971      -237.9736066024  9.21E-06
    51 Broy./Diag. 0.10E+00   14.7     0.00003132      -237.9736016894  4.91E-06
    52 Broy./Diag. 0.10E+00   14.6     0.00008278      -237.9735940289  7.66E-06
    53 Broy./Diag. 0.10E+00   14.6     0.00001578      -237.9735930508  9.78E-07
    54 Broy./Diag. 0.10E+00   14.7     0.00002817      -237.9735905244  2.53E-06
    55 Broy./Diag. 0.10E+00   14.7     0.00001107      -237.9735858261  4.70E-06
    56 Broy./Diag. 0.10E+00   14.6     0.00002544      -237.9735867505 -9.24E-07
    57 Broy./Diag. 0.10E+00   14.2     0.00001034      -237.9735852653  1.49E-06
    58 Broy./Diag. 0.10E+00   14.8     0.00000318      -237.9735839273  1.34E-06
    59 Broy./Diag. 0.10E+00   14.7     0.00001116      -237.9735823384  1.59E-06
    60 Broy./Diag. 0.10E+00   14.7     0.00001040      -237.9735829653 -6.27E-07
    61 Broy./Diag. 0.10E+00   14.7     0.00001309      -237.9735838606 -8.95E-07
    62 Broy./Diag. 0.10E+00   14.7     0.00001804      -237.9735795870  4.27E-06
    63 Broy./Diag. 0.10E+00   14.6     0.00001433      -237.9735762677  3.32E-06
    64 Broy./Diag. 0.10E+00   14.2     0.00000567      -237.9735748535  1.41E-06
    65 Broy./Diag. 0.10E+00   14.7     0.00000781      -237.9735748187  3.47E-08
    66 Broy./Diag. 0.10E+00   14.7     0.00000630      -237.9735744028  4.16E-07
    67 Broy./Diag. 0.10E+00   14.7     0.00000126      -237.9735740227  3.80E-07
    68 Broy./Diag. 0.10E+00   14.6     0.00000268      -237.9735742434 -2.21E-07
    69 Broy./Diag. 0.10E+00   14.6     0.00000088      -237.9735739235  3.20E-07
    70 Broy./Diag. 0.10E+00   14.5     0.00000259      -237.9735735962  3.27E-07
    71 Broy./Diag. 0.10E+00   14.2     0.00000130      -237.9735736147 -1.85E-08
    72 Broy./Diag. 0.10E+00   14.6     0.00000318      -237.9735735826  3.21E-08
    73 Broy./Diag. 0.10E+00   14.6     0.00001131      -237.9735740481 -4.65E-07
    74 Broy./Diag. 0.10E+00   14.6     0.00000873      -237.9735732181  8.30E-07
    75 Broy./Diag. 0.10E+00   14.5     0.00000523      -237.9735723097  9.08E-07
    76 Broy./Diag. 0.10E+00   14.6     0.00001111      -237.9735716385  6.71E-07
    77 Broy./Diag. 0.10E+00   14.5     0.00000648      -237.9735717986 -1.60E-07
    78 Broy./Diag. 0.10E+00   14.2     0.00000126      -237.9735717730  2.56E-08
    79 Broy./Diag. 0.10E+00   14.6     0.00000003      -237.9735717900 -1.70E-08

  *** SCF run converged in    79 steps ***


  Electronic density on regular grids:       -168.0000000000        0.0000000000
  Core density on regular grids:              167.9999999999       -0.0000000001
  Total charge density on r-space grids:       -0.0000000001
  Total charge density g-space grids:          -0.0000000001

  Overlap energy of the core charge distribution:               0.00000836868231
  Self energy of the core charge distribution:               -560.07033292413882
  Core Hamiltonian energy:                                    172.47486473849756
  Hartree energy:                                             221.70852866528119
  Exchange-correlation energy:                                -72.04537931664632
  Dispersion energy:                                           -0.03772957574913
  Electronic entropic energy:                                  -0.00353174594687
  Fermi energy:                                                -0.18327766132098

  Total energy:                                              -237.97357178999394

  outer SCF iter =    1 RMS gradient =   0.32E-07 energy =       -237.9735717900
  outer SCF loop converged in   1 iterations or   79 steps


  Integrated absolute spin density  :                               0.0029230298
  WARNING: S**2 computation does not yet treat fractional occupied orbitals

 *** WARNING in qs_loc_utils.F:1500 :: User requested the calculation of ***
 *** the localized wavefunction but the section LOCALIZE was not         ***
 *** specified. Localization will not be performed!                      ***


 -------------------------------------------------------------------------------
 -                                                                             -
 -  BSSE CALCULATION         FRAGMENT CONF: 01        FRAGMENT SUBCONF: 01     -
 -                           CHARGE =     0           MULTIPLICITY =     0     -
 -                                                                             -
 -                 ATOM INDEX                              ATOM NAME           -
 -                 ----------                              ---------           -
 -                     43                                   Na                 -
 -------------------------------------------------------------------------------

 *******************************************************************************
 *******************************************************************************
 **                                                                           **
 **     #####                         ##              ##                      **
 **    ##   ##            ##          ##              ##                      **
 **   ##     ##                       ##            ######                    **
 **   ##     ##  ##   ##  ##   #####  ##  ##   ####   ##    #####    #####    **
 **   ##     ##  ##   ##  ##  ##      ## ##   ##      ##   ##   ##  ##   ##   **
 **   ##  ## ##  ##   ##  ##  ##      ####     ###    ##   ######   ######    **
 **    ##  ###   ##   ##  ##  ##      ## ##      ##   ##   ##       ##        **
 **     #######   #####   ##   #####  ##  ##  ####    ##    #####   ##        **
 **           ##                                                    ##        **
 **                                                                           **
 **                                                ... make the atoms dance   **
 **                                                                           **
 **            Copyright (C) by CP2K developers group (2000-2022)             **
 **                      J. Chem. Phys. 152, 194103 (2020)                    **
 **                                                                           **
 *******************************************************************************

 *** WARNING in qs_environment.F:1470 :: More ADDED_MOs requested for beta ***
 *** spin than available.                                                  ***


 *** WARNING in qs_environment.F:1486 :: More added MOs requested than     ***
 *** available. The full set of unoccupied MOs will be used. Use           ***
 *** 'ADDED_MOS -1' to always use all available MOs and to get rid of this ***
 *** warning.                                                              ***



 TOTAL NUMBERS AND MAXIMUM NUMBERS

  Total number of            - Atomic kinds:                                   1
                             - Atoms:                                          1
                             - Shell sets:                                     1
                             - Shells:                                         5
                             - Primitive Cartesian functions:                  7
                             - Cartesian basis functions:                      9
                             - Spherical basis functions:                      9

  Maximum angular momentum of- Orbital basis functions:                        1
                             - Local part of the GTH pseudopotential:          2
                             - Non-local part of the GTH pseudopotential:      1


 SCF PARAMETERS         Density guess:                                    ATOMIC
                        --------------------------------------------------------
                        max_scf:                                             100
                        max_scf_history:                                       0
                        max_diis:                                              4
                        --------------------------------------------------------
                        eps_scf:                                        3.00E-07
                        eps_scf_history:                                0.00E+00
                        eps_diis:                                       1.00E-01
                        eps_eigval:                                     1.00E-05
                        --------------------------------------------------------
                        level_shift [a.u.]:                             0.000000
                        added MOs                                         4    5
                        --------------------------------------------------------
                        Mixing method:                            BROYDEN_MIXING
                                                charge density mixing in g-space
                        --------------------------------------------------------
                        Smear method:                                FERMI_DIRAC
                        Electronic temperature [K]:                        300.0
                        Electronic temperature [a.u.]:                  9.50E-04
                        Accuracy threshold:                             1.00E-10
                        --------------------------------------------------------
                        Outer loop SCF in use 
                        No variables optimised in outer loop
                        eps_scf                                         1.00E-06
                        max_scf                                              150
                        DIIS optimization
                        DIIS buffer length                                     3
                        step_size                                       5.00E-01

 Spin 1

 Number of electrons:                                                          5
 Number of occupied orbitals:                                                  5
 Number of molecular orbitals:                                                 9

 Spin 2

 Number of electrons:                                                          4
 Number of occupied orbitals:                                                  4
 Number of molecular orbitals:                                                 9

 Number of orbital functions:                                                  9
 Number of independent orbital functions:                                      9

 Extrapolation method: initial_guess


 SCF WAVEFUNCTION OPTIMIZATION

  Step     Update method      Time    Convergence         Total energy    Change
  ------------------------------------------------------------------------------
     1 NoMix/Diag. 0.10E+00    3.4     0.42045447       -47.1708500789 -4.72E+01
     2 Broy./Diag. 0.10E+00    7.8     0.00688674       -47.1304567826  4.04E-02
     3 Broy./Diag. 0.10E+00    8.1     0.02089403       -47.1717191883 -4.13E-02
     4 Broy./Diag. 0.10E+00    8.2     0.00033270       -47.1629145394  8.80E-03
     5 Broy./Diag. 0.10E+00    8.4     0.12616752       -47.1731313609 -1.02E-02
     6 Broy./Diag. 0.10E+00    8.6     0.01721379       -46.7612244149  4.12E-01
     7 Broy./Diag. 0.10E+00    8.8     0.00395853       -46.7497702820  1.15E-02
     8 Broy./Diag. 0.10E+00    9.1     0.01061360       -46.7651844486 -1.54E-02
     9 Broy./Diag. 0.10E+00    9.4     0.04238394       -46.8658294997 -1.01E-01
    10 Broy./Diag. 0.10E+00    9.8     0.01782665       -47.0212155893 -1.55E-01
    11 Broy./Diag. 0.10E+00   10.2     0.00549341       -47.0908987702 -6.97E-02
    12 Broy./Diag. 0.10E+00   10.6     0.01483753       -47.1127166479 -2.18E-02
    13 Broy./Diag. 0.10E+00   11.1     0.01919550       -47.1625308161 -4.98E-02
    14 Broy./Diag. 0.10E+00   11.6     0.00337643       -47.2184559998 -5.59E-02
    15 Broy./Diag. 0.10E+00   12.1     0.01216930       -47.1777657299  4.07E-02
    16 Broy./Diag. 0.10E+00   12.7     0.00928424       -47.1550937046  2.27E-02
    17 Broy./Diag. 0.10E+00   13.4     0.00244639       -47.1921767792 -3.71E-02
    18 Broy./Diag. 0.10E+00   13.4     0.00161907       -47.2070966173 -1.49E-02
    19 Broy./Diag. 0.10E+00   13.4     0.00740964       -47.2247294293 -1.76E-02
    20 Broy./Diag. 0.10E+00   13.4     0.00253308       -47.2665917938 -4.19E-02
    21 Broy./Diag. 0.10E+00   13.4     0.00063765       -47.2767835890 -1.02E-02
    22 Broy./Diag. 0.10E+00   13.4     0.00064294       -47.2723822869  4.40E-03
    23 Broy./Diag. 0.10E+00   13.4     0.01294826       -47.2985429533 -2.62E-02
    24 Broy./Diag. 0.10E+00   13.4     0.00143957       -47.2411285906  5.74E-02
    25 Broy./Diag. 0.10E+00   13.4     0.00010155       -47.2355972330  5.53E-03
    26 Broy./Diag. 0.10E+00   13.4     0.00009106       -47.2367996406 -1.20E-03
    27 Broy./Diag. 0.10E+00   13.4     0.00262220       -47.2442567693 -7.46E-03
    28 Broy./Diag. 0.10E+00   13.4     0.00018571       -47.2574391123 -1.32E-02
    29 Broy./Diag. 0.10E+00   13.4     0.00039765       -47.2533315589  4.11E-03
    30 Broy./Diag. 0.10E+00   13.4     0.00024677       -47.2562600149 -2.93E-03
    31 Broy./Diag. 0.10E+00   13.4     0.00408785       -47.2497076366  6.55E-03
    32 Broy./Diag. 0.10E+00   13.4     0.00339386       -47.2695216365 -1.98E-02
    33 Broy./Diag. 0.10E+00   13.4     0.00265254       -47.2878760629 -1.84E-02
    34 Broy./Diag. 0.10E+00   13.4     0.00077667       -47.3045008748 -1.66E-02
    35 Broy./Diag. 0.10E+00   13.4     0.00086487       -47.3080644287 -3.56E-03
    36 Broy./Diag. 0.10E+00   13.3     0.00037538       -47.3131146302 -5.05E-03
    37 Broy./Diag. 0.10E+00   13.4     0.00020252       -47.3098370017  3.28E-03
    38 Broy./Diag. 0.10E+00   13.4     0.00036206       -47.3089240254  9.13E-04
    39 Broy./Diag. 0.10E+00   13.4     0.00038781       -47.2919126701  1.70E-02
    40 Broy./Diag. 0.10E+00   13.4     0.00047777       -47.2721685681  1.97E-02
    41 Broy./Diag. 0.10E+00   13.4     0.00032529       -47.2567300204  1.54E-02
    42 Broy./Diag. 0.10E+00   13.4     0.00025584       -47.2425751436  1.42E-02
    43 Broy./Diag. 0.10E+00   13.3     0.00020509       -47.2325540063  1.00E-02
    44 Broy./Diag. 0.10E+00   13.4     0.00019270       -47.2217850126  1.08E-02
    45 Broy./Diag. 0.10E+00   13.3     0.00011255       -47.2139190488  7.87E-03
    46 Broy./Diag. 0.10E+00   13.3     0.00016507       -47.2043655700  9.55E-03
    47 Broy./Diag. 0.10E+00   13.4     0.00019677       -47.1935018867  1.09E-02
    48 Broy./Diag. 0.10E+00   13.3     0.00021879       -47.1826139150  1.09E-02
    49 Broy./Diag. 0.10E+00   13.3     0.00016032       -47.1743409992  8.27E-03
    50 Broy./Diag. 0.10E+00   13.3     0.00009214       -47.1699112463  4.43E-03
    51 Broy./Diag. 0.10E+00   13.3     0.00064886       -47.1669206235  2.99E-03
    52 Broy./Diag. 0.10E+00   13.3     0.00001359       -47.1648841262  2.04E-03
    53 Broy./Diag. 0.10E+00   13.3     0.00002991       -47.1657443382 -8.60E-04
    54 Broy./Diag. 0.10E+00   13.3     0.00032972       -47.1651691464  5.75E-04
    55 Broy./Diag. 0.10E+00   13.3     0.00029963       -47.1653166948 -1.48E-04
    56 Broy./Diag. 0.10E+00   13.4     0.00005721       -47.1657397215 -4.23E-04
    57 Broy./Diag. 0.10E+00   13.3     0.00005813       -47.1652802967  4.59E-04
    58 Broy./Diag. 0.10E+00   13.4     0.00000521       -47.1652135766  6.67E-05
    59 Broy./Diag. 0.10E+00   13.4     0.00031936       -47.1648974174  3.16E-04
    60 Broy./Diag. 0.10E+00   13.4     0.00006859       -47.1643421482  5.55E-04
    61 Broy./Diag. 0.10E+00   13.4     0.00009322       -47.1644106953 -6.85E-05
    62 Broy./Diag. 0.10E+00   13.4     0.00000625       -47.1647075402 -2.97E-04
    63 Broy./Diag. 0.10E+00   13.4     0.00003133       -47.1653171285 -6.10E-04
    64 Broy./Diag. 0.10E+00   13.3     0.00007754       -47.1654326625 -1.16E-04
    65 Broy./Diag. 0.10E+00   13.4     0.00004404       -47.1653096683  1.23E-04
    66 Broy./Diag. 0.10E+00   13.3     0.00007589       -47.1651841127  1.26E-04
    67 Broy./Diag. 0.10E+00   13.3     0.00003526       -47.1649910236  1.93E-04
    68 Broy./Diag. 0.10E+00   13.3     0.00001263       -47.1649205011  7.05E-05
    69 Broy./Diag. 0.10E+00   13.4     0.00001102       -47.1648910925  2.94E-05
    70 Broy./Diag. 0.10E+00   13.3     0.00000706       -47.1650686753 -1.78E-04
    71 Broy./Diag. 0.10E+00   13.3     0.00001426       -47.1649213779  1.47E-04
    72 Broy./Diag. 0.10E+00   13.3     0.00000672       -47.1647981419  1.23E-04
    73 Broy./Diag. 0.10E+00   13.3     0.00001293       -47.1647750003  2.31E-05
    74 Broy./Diag. 0.10E+00   13.4     0.00002211       -47.1648154508 -4.05E-05
    75 Broy./Diag. 0.10E+00   13.3     0.00001291       -47.1649064190 -9.10E-05
    76 Broy./Diag. 0.10E+00   13.3     0.00000198       -47.1648935590  1.29E-05
    77 Broy./Diag. 0.10E+00   13.4     0.00000594       -47.1648740205  1.95E-05
    78 Broy./Diag. 0.10E+00   13.3     0.00002624       -47.1649492873 -7.53E-05
    79 Broy./Diag. 0.10E+00   13.3     0.00000742       -47.1649654167 -1.61E-05
    80 Broy./Diag. 0.10E+00   13.3     0.00003828       -47.1649692602 -3.84E-06
    81 Broy./Diag. 0.10E+00   13.3     0.00008049       -47.1649040122  6.52E-05
    82 Broy./Diag. 0.10E+00   13.3     0.00005338       -47.1650556175 -1.52E-04
    83 Broy./Diag. 0.10E+00   13.3     0.00004906       -47.1649154739  1.40E-04
    84 Broy./Diag. 0.10E+00   13.3     0.00006163       -47.1650084184 -9.29E-05
    85 Broy./Diag. 0.10E+00   13.3     0.00005463       -47.1648772124  1.31E-04
    86 Broy./Diag. 0.10E+00   13.3     0.00004956       -47.1649835331 -1.06E-04
    87 Broy./Diag. 0.10E+00   13.3     0.00004822       -47.1648846514  9.89E-05
    88 Broy./Diag. 0.10E+00   13.3     0.00000548       -47.1649841870 -9.95E-05
    89 Broy./Diag. 0.10E+00   13.3     0.00000315       -47.1649605353  2.37E-05
    90 Broy./Diag. 0.10E+00   13.3     0.00003772       -47.1649546985  5.84E-06
    91 Broy./Diag. 0.10E+00   13.2     0.00002651       -47.1650297068 -7.50E-05
    92 Broy./Diag. 0.10E+00   13.2     0.00000771       -47.1649476193  8.21E-05
    93 Broy./Diag. 0.10E+00   13.3     0.00000781       -47.1649725082 -2.49E-05
    94 Broy./Diag. 0.10E+00   13.3     0.00000553       -47.1649849566 -1.24E-05
    95 Broy./Diag. 0.10E+00   13.3     0.00000729       -47.1649743625  1.06E-05
    96 Broy./Diag. 0.10E+00   13.3     0.00000414       -47.1650015277 -2.72E-05
    97 Broy./Diag. 0.10E+00   13.3     0.00000962       -47.1650210062 -1.95E-05
    98 Broy./Diag. 0.10E+00   13.3     0.00000153       -47.1650588503 -3.78E-05
    99 Broy./Diag. 0.10E+00   13.2     0.00000264       -47.1650614930 -2.64E-06
   100 Broy./Diag. 0.10E+00   13.3     0.00000089       -47.1650563979  5.10E-06

  Leaving inner SCF loop after reaching   100 steps.


  Electronic density on regular grids:         -9.0000012720       -0.0000012720
  Core density on regular grids:                9.0000000000       -0.0000000000
  Total charge density on r-space grids:       -0.0000012720
  Total charge density g-space grids:          -0.0000012720

  Overlap energy of the core charge distribution:               0.00000000000000
  Self energy of the core charge distribution:                -96.60649019442629
  Core Hamiltonian energy:                                     29.76209391858978
  Hartree energy:                                              26.73440760403737
  Exchange-correlation energy:                                 -7.05505889158831
  Dispersion energy:                                           -0.00000883455364
  Electronic entropic energy:                                  -0.00000000000000
  Fermi energy:                                                -0.07349268882531

  Total energy:                                               -47.16505639794109

  outer SCF iter =    1 RMS gradient =   0.89E-06 energy =        -47.1650563979
  outer SCF loop converged in   1 iterations or  100 steps


 *** WARNING in qs_scf.F:601 :: SCF run NOT converged ***


  Integrated absolute spin density  :                               1.0000438455
  WARNING: S**2 computation does not yet treat fractional occupied orbitals

 *** WARNING in qs_loc_utils.F:1500 :: User requested the calculation of ***
 *** the localized wavefunction but the section LOCALIZE was not         ***
 *** specified. Localization will not be performed!                      ***


 -------------------------------------------------------------------------------
 -                                                                             -
 -  BSSE CALCULATION         FRAGMENT CONF: 11        FRAGMENT SUBCONF: 10     -
 -                           CHARGE =     0           MULTIPLICITY =     0     -
 -                                                                             -
 -                 ATOM INDEX                              ATOM NAME           -
 -                 ----------                              ---------           -
 -                      1                                   C                  -
 -                      2                                   C                  -
 -                      3                                   C                  -
 -                      4                                   C                  -
 -                      5                                   C                  -
 -                      6                                   C                  -
 -                      7                                   C                  -
 -                      8                                   C                  -
 -                      9                                   C                  -
 -                     10                                   C                  -
 -                     11                                   C                  -
 -                     12                                   C                  -
 -                     13                                   C                  -
 -                     14                                   C                  -
 -                     15                                   C                  -
 -                     16                                   C                  -
 -                     17                                   C                  -
 -                     18                                   C                  -
 -                     19                                   C                  -
 -                     20                                   C                  -
 -                     21                                   C                  -
 -                     22                                   C                  -
 -                     23                                   C                  -
 -                     24                                   C                  -
 -                     25                                   C                  -
 -                     26                                   C                  -
 -                     27                                   C                  -
 -                     28                                   C                  -
 -                     29                                   C                  -
 -                     30                                   C                  -
 -                     31                                   C                  -
 -                     32                                   C                  -
 -                     33                                   C                  -
 -                     34                                   C                  -
 -                     35                                   C                  -
 -                     36                                   C                  -
 -                     37                                   C                  -
 -                     38                                   C                  -
 -                     39                                   C                  -
 -                     40                                   C                  -
 -                     41                                   C                  -
 -                     42                                   C                  -
 -                     43                                   Na_ghost           -
 -------------------------------------------------------------------------------

 *******************************************************************************
 *******************************************************************************
 **                                                                           **
 **     #####                         ##              ##                      **
 **    ##   ##            ##          ##              ##                      **
 **   ##     ##                       ##            ######                    **
 **   ##     ##  ##   ##  ##   #####  ##  ##   ####   ##    #####    #####    **
 **   ##     ##  ##   ##  ##  ##      ## ##   ##      ##   ##   ##  ##   ##   **
 **   ##  ## ##  ##   ##  ##  ##      ####     ###    ##   ######   ######    **
 **    ##  ###   ##   ##  ##  ##      ## ##      ##   ##   ##       ##        **
 **     #######   #####   ##   #####  ##  ##  ####    ##    #####   ##        **
 **           ##                                                    ##        **
 **                                                                           **
 **                                                ... make the atoms dance   **
 **                                                                           **
 **            Copyright (C) by CP2K developers group (2000-2022)             **
 **                      J. Chem. Phys. 152, 194103 (2020)                    **
 **                                                                           **
 *******************************************************************************


 TOTAL NUMBERS AND MAXIMUM NUMBERS

  Total number of            - Atomic kinds:                                   2
                             - Atoms:                                         43
                             - Shell sets:                                    43
                             - Shells:                                       215
                             - Primitive Cartesian functions:                217
                             - Cartesian basis functions:                    597
                             - Spherical basis functions:                    555

  Maximum angular momentum of- Orbital basis functions:                        2
                             - Local part of the GTH pseudopotential:          2
                             - Non-local part of the GTH pseudopotential:      0


 SCF PARAMETERS         Density guess:                                    ATOMIC
                        --------------------------------------------------------
                        max_scf:                                             100
                        max_scf_history:                                       0
                        max_diis:                                              4
                        --------------------------------------------------------
                        eps_scf:                                        3.00E-07
                        eps_scf_history:                                0.00E+00
                        eps_diis:                                       1.00E-01
                        eps_eigval:                                     1.00E-05
                        --------------------------------------------------------
                        level_shift [a.u.]:                             0.000000
                        added MOs                                       100  100
                        --------------------------------------------------------
                        Mixing method:                            BROYDEN_MIXING
                                                charge density mixing in g-space
                        --------------------------------------------------------
                        Smear method:                                FERMI_DIRAC
                        Electronic temperature [K]:                        300.0
                        Electronic temperature [a.u.]:                  9.50E-04
                        Accuracy threshold:                             1.00E-10
                        --------------------------------------------------------
                        Outer loop SCF in use 
                        No variables optimised in outer loop
                        eps_scf                                         1.00E-06
                        max_scf                                              150
                        DIIS optimization
                        DIIS buffer length                                     3
                        step_size                                       5.00E-01

 Spin 1

 Number of electrons:                                                         84
 Number of occupied orbitals:                                                 84
 Number of molecular orbitals:                                               184

 Spin 2

 Number of electrons:                                                         84
 Number of occupied orbitals:                                                 84
 Number of molecular orbitals:                                               184

 Number of orbital functions:                                                555
 Number of independent orbital functions:                                    555

 Extrapolation method: initial_guess


 SCF WAVEFUNCTION OPTIMIZATION

  Step     Update method      Time    Convergence         Total energy    Change
  ------------------------------------------------------------------------------
     1 NoMix/Diag. 0.10E+00    4.0     0.46360545      -236.0468780821 -2.36E+02
     2 Broy./Diag. 0.10E+00    8.2     0.01164579      -229.6112879855  6.44E+00
     3 Broy./Diag. 0.10E+00    8.6     0.06254169      -234.0769612262 -4.47E+00
     4 Broy./Diag. 0.10E+00    8.7     0.00856780      -236.6801824671 -2.60E+00
     5 Broy./Diag. 0.10E+00    8.9     0.02465580      -237.3377372055 -6.58E-01
     6 Broy./Diag. 0.10E+00    9.1     0.00553108      -237.5999890465 -2.62E-01
     7 Broy./Diag. 0.10E+00    9.3     0.01296748      -237.6941436887 -9.42E-02
     8 Broy./Diag. 0.10E+00    9.5     0.00529900      -237.7725425080 -7.84E-02
     9 Broy./Diag. 0.10E+00    9.9     0.00355930      -237.8062954393 -3.38E-02
    10 Broy./Diag. 0.10E+00   10.2     0.00458862      -237.8351515065 -2.89E-02
    11 Broy./Diag. 0.10E+00   10.6     0.00630016      -237.8738308014 -3.87E-02
    12 Broy./Diag. 0.10E+00   11.1     0.00369583      -237.8808569225 -7.03E-03
    13 Broy./Diag. 0.10E+00   11.5     0.00089410      -237.8988323123 -1.80E-02
    14 Broy./Diag. 0.10E+00   12.0     0.00122340      -237.9152441917 -1.64E-02
    15 Broy./Diag. 0.10E+00   12.7     0.00032750      -237.9347482925 -1.95E-02
    16 Broy./Diag. 0.10E+00   13.1     0.00106976      -237.9468140084 -1.21E-02
    17 Broy./Diag. 0.10E+00   13.8     0.00055645      -237.9563296195 -9.52E-03
    18 Broy./Diag. 0.10E+00   13.8     0.00046314      -237.9622138128 -5.88E-03
    19 Broy./Diag. 0.10E+00   13.8     0.00029301      -237.9639717663 -1.76E-03
    20 Broy./Diag. 0.10E+00   13.8     0.00020409      -237.9651356346 -1.16E-03
    21 Broy./Diag. 0.10E+00   13.8     0.00042282      -237.9650237216  1.12E-04
    22 Broy./Diag. 0.10E+00   13.7     0.00035889      -237.9636112831  1.41E-03
    23 Broy./Diag. 0.10E+00   13.8     0.00009562      -237.9643297534 -7.18E-04
    24 Broy./Diag. 0.10E+00   13.8     0.00006575      -237.9675703825 -3.24E-03
    25 Broy./Diag. 0.10E+00   13.8     0.00004693      -237.9712627349 -3.69E-03
    26 Broy./Diag. 0.10E+00   13.8     0.00003484      -237.9724168120 -1.15E-03
    27 Broy./Diag. 0.10E+00   13.8     0.00003196      -237.9727407725 -3.24E-04
    28 Broy./Diag. 0.10E+00   13.8     0.00005256      -237.9735974705 -8.57E-04
    29 Broy./Diag. 0.10E+00   13.8     0.00005472      -237.9750161231 -1.42E-03
    30 Broy./Diag. 0.10E+00   13.8     0.00005838      -237.9762204819 -1.20E-03
    31 Broy./Diag. 0.10E+00   13.8     0.00006940      -237.9764890082 -2.69E-04
    32 Broy./Diag. 0.10E+00   13.9     0.00003777      -237.9764518880  3.71E-05
    33 Broy./Diag. 0.10E+00   13.9     0.00002856      -237.9762302212  2.22E-04
    34 Broy./Diag. 0.10E+00   13.9     0.00002090      -237.9759869427  2.43E-04
    35 Broy./Diag. 0.10E+00   14.0     0.00002254      -237.9758696611  1.17E-04
    36 Broy./Diag. 0.10E+00   13.9     0.00006440      -237.9758765209 -6.86E-06
    37 Broy./Diag. 0.10E+00   14.0     0.00006537      -237.9758804369 -3.92E-06
    38 Broy./Diag. 0.10E+00   14.0     0.00005642      -237.9759162521 -3.58E-05
    39 Broy./Diag. 0.10E+00   14.0     0.00001101      -237.9760079815 -9.17E-05
    40 Broy./Diag. 0.10E+00   14.0     0.00002291      -237.9761004866 -9.25E-05
    41 Broy./Diag. 0.10E+00   14.1     0.00001194      -237.9761710693 -7.06E-05
    42 Broy./Diag. 0.10E+00   14.1     0.00002902      -237.9762564894 -8.54E-05
    43 Broy./Diag. 0.10E+00   14.0     0.00002681      -237.9763440357 -8.75E-05
    44 Broy./Diag. 0.10E+00   14.1     0.00000487      -237.9763999810 -5.59E-05
    45 Broy./Diag. 0.10E+00   14.1     0.00001216      -237.9764304550 -3.05E-05
    46 Broy./Diag. 0.10E+00   14.1     0.00003216      -237.9764482073 -1.78E-05
    47 Broy./Diag. 0.10E+00   14.1     0.00001100      -237.9764558198 -7.61E-06
    48 Broy./Diag. 0.10E+00   14.1     0.00003282      -237.9764248561  3.10E-05
    49 Broy./Diag. 0.10E+00   14.1     0.00002358      -237.9763918874  3.30E-05
    50 Broy./Diag. 0.10E+00   14.0     0.00001542      -237.9763758640  1.60E-05
    51 Broy./Diag. 0.10E+00   14.1     0.00002724      -237.9763726269  3.24E-06
    52 Broy./Diag. 0.10E+00   14.1     0.00001447      -237.9763832493 -1.06E-05
    53 Broy./Diag. 0.10E+00   14.1     0.00000997      -237.9763901709 -6.92E-06
    54 Broy./Diag. 0.10E+00   14.1     0.00002637      -237.9763910053 -8.34E-07
    55 Broy./Diag. 0.10E+00   14.1     0.00002337      -237.9763913486 -3.43E-07
    56 Broy./Diag. 0.10E+00   14.1     0.00000557      -237.9763934380 -2.09E-06
    57 Broy./Diag. 0.10E+00   14.1     0.00000102      -237.9763925982  8.40E-07
    58 Broy./Diag. 0.10E+00   14.1     0.00004053      -237.9763880619  4.54E-06
    59 Broy./Diag. 0.10E+00   14.1     0.00001835      -237.9763899139 -1.85E-06
    60 Broy./Diag. 0.10E+00   14.1     0.00003557      -237.9763899661 -5.22E-08
    61 Broy./Diag. 0.10E+00   14.1     0.00002001      -237.9763861550  3.81E-06
    62 Broy./Diag. 0.10E+00   14.1     0.00000502      -237.9763854591  6.96E-07
    63 Broy./Diag. 0.10E+00   14.1     0.00000223      -237.9763857832 -3.24E-07
    64 Broy./Diag. 0.10E+00   14.1     0.00000139      -237.9763854154  3.68E-07
    65 Broy./Diag. 0.10E+00   14.1     0.00001843      -237.9763835000  1.92E-06
    66 Broy./Diag. 0.10E+00   14.1     0.00000172      -237.9763834280  7.19E-08
    67 Broy./Diag. 0.10E+00   14.1     0.00001019      -237.9763843117 -8.84E-07
    68 Broy./Diag. 0.10E+00   14.1     0.00001118      -237.9763825458  1.77E-06
    69 Broy./Diag. 0.10E+00   14.1     0.00000568      -237.9763823231  2.23E-07
    70 Broy./Diag. 0.10E+00   14.1     0.00001416      -237.9763845597 -2.24E-06
    71 Broy./Diag. 0.10E+00   14.1     0.00001025      -237.9763832956  1.26E-06
    72 Broy./Diag. 0.10E+00   14.1     0.00000478      -237.9763825880  7.08E-07
    73 Broy./Diag. 0.10E+00   14.1     0.00001503      -237.9763847523 -2.16E-06
    74 Broy./Diag. 0.10E+00   14.1     0.00000974      -237.9763834158  1.34E-06
    75 Broy./Diag. 0.10E+00   14.1     0.00000827      -237.9763849279 -1.51E-06
    76 Broy./Diag. 0.10E+00   14.1     0.00000159      -237.9763841382  7.90E-07
    77 Broy./Diag. 0.10E+00   14.1     0.00000957      -237.9763859786 -1.84E-06
    78 Broy./Diag. 0.10E+00   14.1     0.00000108      -237.9763852370  7.42E-07
    79 Broy./Diag. 0.10E+00   14.1     0.00000307      -237.9763849494  2.88E-07
    80 Broy./Diag. 0.10E+00   14.1     0.00000084      -237.9763847329  2.17E-07
    81 Broy./Diag. 0.10E+00   14.1     0.00000061      -237.9763849199 -1.87E-07
    82 Broy./Diag. 0.10E+00   14.1     0.00000211      -237.9763845380  3.82E-07
    83 Broy./Diag. 0.10E+00   14.1     0.00000152      -237.9763851131 -5.75E-07
    84 Broy./Diag. 0.10E+00   14.1     0.00000121      -237.9763845726  5.41E-07
    85 Broy./Diag. 0.10E+00   14.1     0.00000184      -237.9763857107 -1.14E-06
    86 Broy./Diag. 0.10E+00   14.1     0.00000353      -237.9763847700  9.41E-07
    87 Broy./Diag. 0.10E+00   14.1     0.00000176      -237.9763855165 -7.46E-07
    88 Broy./Diag. 0.10E+00   14.1     0.00000137      -237.9763854337  8.28E-08
    89 Broy./Diag. 0.10E+00   14.1     0.00000175      -237.9763854126  2.11E-08
    90 Broy./Diag. 0.10E+00   14.1     0.00000436      -237.9763841998  1.21E-06
    91 Broy./Diag. 0.10E+00   14.1     0.00000377      -237.9763840959  1.04E-07
    92 Broy./Diag. 0.10E+00   14.1     0.00000075      -237.9763843341 -2.38E-07
    93 Broy./Diag. 0.10E+00   14.4     0.00000178      -237.9763841877  1.46E-07
    94 Broy./Diag. 0.10E+00   14.1     0.00000616      -237.9763849883 -8.01E-07
    95 Broy./Diag. 0.10E+00   14.1     0.00001356      -237.9763838911  1.10E-06
    96 Broy./Diag. 0.10E+00   14.1     0.00004467      -237.9763808471  3.04E-06
    97 Broy./Diag. 0.10E+00   14.1     0.00001604      -237.9763786894  2.16E-06
    98 Broy./Diag. 0.10E+00   14.1     0.00001165      -237.9763773803  1.31E-06
    99 Broy./Diag. 0.10E+00   14.1     0.00001769      -237.9763782577 -8.77E-07
   100 Broy./Diag. 0.10E+00   14.1     0.00002169      -237.9763771040  1.15E-06

  Leaving inner SCF loop after reaching   100 steps.


  Electronic density on regular grids:       -168.0000000000        0.0000000000
  Core density on regular grids:              167.9999999999       -0.0000000001
  Total charge density on r-space grids:       -0.0000000001
  Total charge density g-space grids:          -0.0000000001

  Overlap energy of the core charge distribution:               0.00000836868231
  Self energy of the core charge distribution:               -560.07033292413882
  Core Hamiltonian energy:                                    172.45321749978416
  Hartree energy:                                             221.71959327155130
  Exchange-correlation energy:                                -72.03760785802444
  Dispersion energy:                                           -0.03772957574913
  Electronic entropic energy:                                  -0.00352588623465
  Fermi energy:                                                -0.18405450240970

  Total energy:                                              -237.97637710398266

  outer SCF iter =    1 RMS gradient =   0.22E-04 energy =       -237.9763771040
     1 Broy./Diag. 0.10E+00   20.7     0.00009440      -237.9763267385  5.04E-05
     2 Broy./Diag. 0.10E+00   14.1     0.00002758      -237.9763750331 -4.83E-05
     3 Broy./Diag. 0.10E+00   14.1     0.00000946      -237.9763687004  6.33E-06
     4 Broy./Diag. 0.10E+00   14.1     0.00000515      -237.9763681225  5.78E-07
     5 Broy./Diag. 0.10E+00   14.1     0.00000578      -237.9763673998  7.23E-07
     6 Broy./Diag. 0.10E+00   14.1     0.00000135      -237.9763677623 -3.62E-07
     7 Broy./Diag. 0.10E+00   14.1     0.00000294      -237.9763680804 -3.18E-07
     8 Broy./Diag. 0.10E+00   14.2     0.00000444      -237.9763686623 -5.82E-07
     9 Broy./Diag. 0.10E+00   14.1     0.00000077      -237.9763680550  6.07E-07
    10 Broy./Diag. 0.10E+00   14.1     0.00000298      -237.9763678947  1.60E-07
    11 Broy./Diag. 0.10E+00   14.1     0.00000167      -237.9763675072  3.87E-07
    12 Broy./Diag. 0.10E+00   14.1     0.00000530      -237.9763673920  1.15E-07
    13 Broy./Diag. 0.10E+00   14.1     0.00000772      -237.9763669923  4.00E-07
    14 Broy./Diag. 0.10E+00   14.1     0.00000398      -237.9763667700  2.22E-07
    15 Broy./Diag. 0.10E+00   14.1     0.00001510      -237.9763654254  1.34E-06
    16 Broy./Diag. 0.10E+00   14.1     0.00003814      -237.9763638832  1.54E-06
    17 Broy./Diag. 0.10E+00   14.1     0.00003517      -237.9763636496  2.34E-07
    18 Broy./Diag. 0.10E+00   14.1     0.00011974      -237.9763649182 -1.27E-06
    19 Broy./Diag. 0.10E+00   14.1     0.00001181      -237.9763633963  1.52E-06
    20 Broy./Diag. 0.10E+00   14.1     0.00001326      -237.9763599319  3.46E-06
    21 Broy./Diag. 0.10E+00   14.2     0.00001145      -237.9763553762  4.56E-06
    22 Broy./Diag. 0.10E+00   14.1     0.00000985      -237.9763547730  6.03E-07
    23 Broy./Diag. 0.10E+00   14.1     0.00000580      -237.9763540448  7.28E-07
    24 Broy./Diag. 0.10E+00   14.1     0.00001232      -237.9763518677  2.18E-06
    25 Broy./Diag. 0.10E+00   14.1     0.00000433      -237.9763522310 -3.63E-07
    26 Broy./Diag. 0.10E+00   14.1     0.00000133      -237.9763522103  2.07E-08
    27 Broy./Diag. 0.10E+00   14.1     0.00000277      -237.9763520832  1.27E-07
    28 Broy./Diag. 0.10E+00   14.1     0.00000549      -237.9763520991 -1.59E-08
    29 Broy./Diag. 0.10E+00   14.1     0.00000373      -237.9763517077  3.91E-07
    30 Broy./Diag. 0.10E+00   14.1     0.00000361      -237.9763514448  2.63E-07
    31 Broy./Diag. 0.10E+00   14.1     0.00000397      -237.9763510905  3.54E-07
    32 Broy./Diag. 0.10E+00   14.1     0.00000650      -237.9763510016  8.89E-08
    33 Broy./Diag. 0.10E+00   14.1     0.00000183      -237.9763506676  3.34E-07
    34 Broy./Diag. 0.10E+00   14.1     0.00000281      -237.9763510714 -4.04E-07
    35 Broy./Diag. 0.10E+00   14.1     0.00000126      -237.9763512214 -1.50E-07
    36 Broy./Diag. 0.10E+00   14.1     0.00001802      -237.9763510492  1.72E-07
    37 Broy./Diag. 0.10E+00   14.1     0.00000907      -237.9763504135  6.36E-07
    38 Broy./Diag. 0.10E+00   14.1     0.00000209      -237.9763508952 -4.82E-07
    39 Broy./Diag. 0.10E+00   14.1     0.00000318      -237.9763492698  1.63E-06
    40 Broy./Diag. 0.10E+00   14.1     0.00000515      -237.9763476807  1.59E-06
    41 Broy./Diag. 0.10E+00   14.0     0.00000214      -237.9763443493  3.33E-06
    42 Broy./Diag. 0.10E+00   14.1     0.00000630      -237.9763426067  1.74E-06
    43 Broy./Diag. 0.10E+00   14.1     0.00000264      -237.9763426470 -4.03E-08
    44 Broy./Diag. 0.10E+00   14.1     0.00000201      -237.9763424457  2.01E-07
    45 Broy./Diag. 0.10E+00   14.1     0.00000671      -237.9763414113  1.03E-06
    46 Broy./Diag. 0.10E+00   14.1     0.00000117      -237.9763405083  9.03E-07
    47 Broy./Diag. 0.10E+00   14.1     0.00000191      -237.9763396772  8.31E-07
    48 Broy./Diag. 0.10E+00   14.0     0.00000143      -237.9763390799  5.97E-07
    49 Broy./Diag. 0.10E+00   14.1     0.00000870      -237.9763385446  5.35E-07
    50 Broy./Diag. 0.10E+00   14.1     0.00000272      -237.9763381634  3.81E-07
    51 Broy./Diag. 0.10E+00   14.1     0.00001503      -237.9763369937  1.17E-06
    52 Broy./Diag. 0.10E+00   14.1     0.00000472      -237.9763366156  3.78E-07
    53 Broy./Diag. 0.10E+00   14.1     0.00000754      -237.9763363961  2.19E-07
    54 Broy./Diag. 0.10E+00   14.1     0.00000252      -237.9763363433  5.28E-08
    55 Broy./Diag. 0.10E+00   14.0     0.00000153      -237.9763359926  3.51E-07
    56 Broy./Diag. 0.10E+00   14.1     0.00000198      -237.9763360235 -3.08E-08
    57 Broy./Diag. 0.10E+00   14.1     0.00000082      -237.9763356927  3.31E-07
    58 Broy./Diag. 0.10E+00   14.1     0.00000263      -237.9763357038 -1.11E-08
    59 Broy./Diag. 0.10E+00   14.1     0.00000312      -237.9763357182 -1.45E-08
    60 Broy./Diag. 0.10E+00   14.1     0.00000167      -237.9763355208  1.97E-07
    61 Broy./Diag. 0.10E+00   14.1     0.00000275      -237.9763358088 -2.88E-07
    62 Broy./Diag. 0.10E+00   14.1     0.00000465      -237.9763357951  1.37E-08
    63 Broy./Diag. 0.10E+00   14.1     0.00000231      -237.9763357688  2.64E-08
    64 Broy./Diag. 0.10E+00   14.1     0.00000044      -237.9763356856  8.31E-08
    65 Broy./Diag. 0.10E+00   14.1     0.00000169      -237.9763352132  4.72E-07
    66 Broy./Diag. 0.10E+00   14.1     0.00000194      -237.9763351269  8.63E-08
    67 Broy./Diag. 0.10E+00   14.1     0.00000842      -237.9763349369  1.90E-07
    68 Broy./Diag. 0.10E+00   14.1     0.00000020      -237.9763350134 -7.65E-08

  *** SCF run converged in    68 steps ***


  Electronic density on regular grids:       -168.0000000000        0.0000000000
  Core density on regular grids:              167.9999999999       -0.0000000001
  Total charge density on r-space grids:       -0.0000000001
  Total charge density g-space grids:          -0.0000000001

  Overlap energy of the core charge distribution:               0.00000836868231
  Self energy of the core charge distribution:               -560.07033292413882
  Core Hamiltonian energy:                                    172.45321524925623
  Hartree energy:                                             221.71959791214982
  Exchange-correlation energy:                                -72.03756815855230
  Dispersion energy:                                           -0.03772957574913
  Electronic entropic energy:                                  -0.00352588505392
  Fermi energy:                                                -0.18405496672257

  Total energy:                                              -237.97633501341232

  outer SCF iter =    2 RMS gradient =   0.20E-06 energy =       -237.9763350134
  outer SCF loop converged in   2 iterations or  168 steps


  Integrated absolute spin density  :                               0.0027960556
  WARNING: S**2 computation does not yet treat fractional occupied orbitals

 *** WARNING in qs_loc_utils.F:1500 :: User requested the calculation of ***
 *** the localized wavefunction but the section LOCALIZE was not         ***
 *** specified. Localization will not be performed!                      ***


 -------------------------------------------------------------------------------
 -                                                                             -
 -  BSSE CALCULATION         FRAGMENT CONF: 11        FRAGMENT SUBCONF: 01     -
 -                           CHARGE =     0           MULTIPLICITY =     0     -
 -                                                                             -
 -                 ATOM INDEX                              ATOM NAME           -
 -                 ----------                              ---------           -
 -                      1                                   C_ghost            -
 -                      2                                   C_ghost            -
 -                      3                                   C_ghost            -
 -                      4                                   C_ghost            -
 -                      5                                   C_ghost            -
 -                      6                                   C_ghost            -
 -                      7                                   C_ghost            -
 -                      8                                   C_ghost            -
 -                      9                                   C_ghost            -
 -                     10                                   C_ghost            -
 -                     11                                   C_ghost            -
 -                     12                                   C_ghost            -
 -                     13                                   C_ghost            -
 -                     14                                   C_ghost            -
 -                     15                                   C_ghost            -
 -                     16                                   C_ghost            -
 -                     17                                   C_ghost            -
 -                     18                                   C_ghost            -
 -                     19                                   C_ghost            -
 -                     20                                   C_ghost            -
 -                     21                                   C_ghost            -
 -                     22                                   C_ghost            -
 -                     23                                   C_ghost            -
 -                     24                                   C_ghost            -
 -                     25                                   C_ghost            -
 -                     26                                   C_ghost            -
 -                     27                                   C_ghost            -
 -                     28                                   C_ghost            -
 -                     29                                   C_ghost            -
 -                     30                                   C_ghost            -
 -                     31                                   C_ghost            -
 -                     32                                   C_ghost            -
 -                     33                                   C_ghost            -
 -                     34                                   C_ghost            -
 -                     35                                   C_ghost            -
 -                     36                                   C_ghost            -
 -                     37                                   C_ghost            -
 -                     38                                   C_ghost            -
 -                     39                                   C_ghost            -
 -                     40                                   C_ghost            -
 -                     41                                   C_ghost            -
 -                     42                                   C_ghost            -
 -                     43                                   Na                 -
 -------------------------------------------------------------------------------

 *******************************************************************************
 *******************************************************************************
 **                                                                           **
 **     #####                         ##              ##                      **
 **    ##   ##            ##          ##              ##                      **
 **   ##     ##                       ##            ######                    **
 **   ##     ##  ##   ##  ##   #####  ##  ##   ####   ##    #####    #####    **
 **   ##     ##  ##   ##  ##  ##      ## ##   ##      ##   ##   ##  ##   ##   **
 **   ##  ## ##  ##   ##  ##  ##      ####     ###    ##   ######   ######    **
 **    ##  ###   ##   ##  ##  ##      ## ##      ##   ##   ##       ##        **
 **     #######   #####   ##   #####  ##  ##  ####    ##    #####   ##        **
 **           ##                                                    ##        **
 **                                                                           **
 **                                                ... make the atoms dance   **
 **                                                                           **
 **            Copyright (C) by CP2K developers group (2000-2022)             **
 **                      J. Chem. Phys. 152, 194103 (2020)                    **
 **                                                                           **
 *******************************************************************************


 TOTAL NUMBERS AND MAXIMUM NUMBERS

  Total number of            - Atomic kinds:                                   2
                             - Atoms:                                         43
                             - Shell sets:                                    43
                             - Shells:                                       215
                             - Primitive Cartesian functions:                217
                             - Cartesian basis functions:                    597
                             - Spherical basis functions:                    555

  Maximum angular momentum of- Orbital basis functions:                        2
                             - Local part of the GTH pseudopotential:          2
                             - Non-local part of the GTH pseudopotential:      1


 SCF PARAMETERS         Density guess:                                    ATOMIC
                        --------------------------------------------------------
                        max_scf:                                             100
                        max_scf_history:                                       0
                        max_diis:                                              4
                        --------------------------------------------------------
                        eps_scf:                                        3.00E-07
                        eps_scf_history:                                0.00E+00
                        eps_diis:                                       1.00E-01
                        eps_eigval:                                     1.00E-05
                        --------------------------------------------------------
                        level_shift [a.u.]:                             0.000000
                        added MOs                                       100  100
                        --------------------------------------------------------
                        Mixing method:                            BROYDEN_MIXING
                                                charge density mixing in g-space
                        --------------------------------------------------------
                        Smear method:                                FERMI_DIRAC
                        Electronic temperature [K]:                        300.0
                        Electronic temperature [a.u.]:                  9.50E-04
                        Accuracy threshold:                             1.00E-10
                        --------------------------------------------------------
                        Outer loop SCF in use 
                        No variables optimised in outer loop
                        eps_scf                                         1.00E-06
                        max_scf                                              150
                        DIIS optimization
                        DIIS buffer length                                     3
                        step_size                                       5.00E-01

 Spin 1

 Number of electrons:                                                          5
 Number of occupied orbitals:                                                  5
 Number of molecular orbitals:                                               105

 Spin 2

 Number of electrons:                                                          4
 Number of occupied orbitals:                                                  4
 Number of molecular orbitals:                                               104

 Number of orbital functions:                                                555
 Number of independent orbital functions:                                    555

 Extrapolation method: initial_guess


 SCF WAVEFUNCTION OPTIMIZATION

  Step     Update method      Time    Convergence         Total energy    Change
[...]
     5 Broy./Diag. 0.10E+00   14.1     0.00483364      -284.9996721452  4.08E-02
     6 Broy./Diag. 0.10E+00   14.1     0.01395152      -285.0119785003 -1.23E-02
     7 Broy./Diag. 0.10E+00   14.1     0.00588820      -284.9931762084  1.88E-02
     8 Broy./Diag. 0.10E+00   14.1     0.00773042      -285.0004240753 -7.25E-03
     9 Broy./Diag. 0.10E+00   14.1     0.05471646      -285.0075052167 -7.08E-03
    10 Broy./Diag. 0.10E+00   14.1     0.01970259      -285.0083774505 -8.72E-04
    11 Broy./Diag. 0.10E+00   14.1     0.01928201      -285.0229804781 -1.46E-02
    12 Broy./Diag. 0.10E+00   14.1     0.06606660      -285.0280899873 -5.11E-03
    13 Broy./Diag. 0.10E+00   14.1     0.01598638      -285.0179892562  1.01E-02
    14 Broy./Diag. 0.10E+00   14.1     0.06522152      -285.0521967639 -3.42E-02
    15 Broy./Diag. 0.10E+00   14.1     0.01070704      -285.0282264258  2.40E-02
    16 Broy./Diag. 0.10E+00   14.1     0.01704281      -285.0209963723  7.23E-03
    17 Broy./Diag. 0.10E+00   14.1     0.02513996      -285.0178914411  3.10E-03
    18 Broy./Diag. 0.10E+00   14.1     0.05596921      -285.0268852335 -8.99E-03
    19 Broy./Diag. 0.10E+00   14.1     0.08545900      -284.9964967846  3.04E-02
    20 Broy./Diag. 0.10E+00   14.1     0.11626031      -285.0369027771 -4.04E-02
    21 Broy./Diag. 0.10E+00   14.1     0.03865842      -285.0299224126  6.98E-03
    22 Broy./Diag. 0.10E+00   14.1     0.01478022      -284.9833024332  4.66E-02
    23 Broy./Diag. 0.10E+00   14.1     0.02502094      -284.9632269180  2.01E-02
    24 Broy./Diag. 0.10E+00   14.1     0.03013315      -284.9801031468 -1.69E-02
    25 Broy./Diag. 0.10E+00   14.1     0.00836982      -284.9991623906 -1.91E-02
    26 Broy./Diag. 0.10E+00   14.1     0.04721663      -284.9920797970  7.08E-03
    27 Broy./Diag. 0.10E+00   14.1     0.03861910      -285.0172217391 -2.51E-02
    28 Broy./Diag. 0.10E+00   14.1     0.03408879      -285.0134789449  3.74E-03
    29 Broy./Diag. 0.10E+00   14.1     0.00793679      -285.0066641600  6.81E-03
    30 Broy./Diag. 0.10E+00   14.1     0.02467376      -285.0136510778 -6.99E-03
    31 Broy./Diag. 0.10E+00   14.1     0.01428348      -285.0217750833 -8.12E-03
    32 Broy./Diag. 0.10E+00   14.1     0.00965265      -285.0100873455  1.17E-02
    33 Broy./Diag. 0.10E+00   14.1     0.00417480      -285.0075287030  2.56E-03
    34 Broy./Diag. 0.10E+00   14.1     0.01453517      -285.0055602914  1.97E-03
    35 Broy./Diag. 0.10E+00   14.1     0.01988010      -285.0135401994 -7.98E-03
    36 Broy./Diag. 0.10E+00   14.1     0.03760726      -284.9920972177  2.14E-02
    37 Broy./Diag. 0.10E+00   14.1     0.00714749      -284.9982827012 -6.19E-03
    38 Broy./Diag. 0.10E+00   14.1     0.01263645      -284.9977654799  5.17E-04
    39 Broy./Diag. 0.10E+00   14.1     0.01516358      -285.0042867769 -6.52E-03
    40 Broy./Diag. 0.10E+00   14.1     0.04212575      -285.0019148034  2.37E-03
    41 Broy./Diag. 0.10E+00   14.1     0.08381219      -284.9776230880  2.43E-02
    42 Broy./Diag. 0.10E+00   14.1     0.01705872      -285.0473692717 -6.97E-02
    43 Broy./Diag. 0.10E+00   14.1     0.03493627      -285.0350884862  1.23E-02
    44 Broy./Diag. 0.10E+00   14.1     0.02780069      -285.0609444806 -2.59E-02
    45 Broy./Diag. 0.10E+00   14.1     0.00707394      -285.0371415752  2.38E-02
    46 Broy./Diag. 0.10E+00   14.1     0.03409845      -285.0319004573  5.24E-03
    47 Broy./Diag. 0.10E+00   14.1     0.00916576      -285.0326161379 -7.16E-04
    48 Broy./Diag. 0.10E+00   14.1     0.00815706      -285.0652922721 -3.27E-02
    49 Broy./Diag. 0.10E+00   14.1     0.01107032      -285.0736731321 -8.38E-03
    50 Broy./Diag. 0.10E+00   14.1     0.00822884      -285.0732297933  4.43E-04
    51 Broy./Diag. 0.10E+00   14.1     0.01518008      -285.0679476174  5.28E-03
    52 Broy./Diag. 0.10E+00   14.1     0.00302420      -285.0634240178  4.52E-03
    53 Broy./Diag. 0.10E+00   14.1     0.01313544      -285.0612850901  2.14E-03
    54 Broy./Diag. 0.10E+00   14.1     0.00330479      -285.0500438895  1.12E-02
    55 Broy./Diag. 0.10E+00   14.1     0.04080097      -285.0631246296 -1.31E-02
    56 Broy./Diag. 0.10E+00   14.1     0.05957894      -285.0685525824 -5.43E-03
    57 Broy./Diag. 0.10E+00   14.1     0.03034417      -285.0464167565  2.21E-02
    58 Broy./Diag. 0.10E+00   14.1     0.00741038      -285.0642161793 -1.78E-02
    59 Broy./Diag. 0.10E+00   14.1     0.00897767      -285.0586572186  5.56E-03
    60 Broy./Diag. 0.10E+00   14.1     0.02740851      -285.0694220203 -1.08E-02
    61 Broy./Diag. 0.10E+00   14.1     0.02889791      -285.0317412100  3.77E-02
    62 Broy./Diag. 0.10E+00   14.1     0.04447005      -284.9884003911  4.33E-02
    63 Broy./Diag. 0.10E+00   14.1     0.00603182      -285.0369450744 -4.85E-02
    64 Broy./Diag. 0.10E+00   14.1     0.00830392      -285.0404883920 -3.54E-03
    65 Broy./Diag. 0.10E+00   14.1     0.01118844      -285.0403241982  1.64E-04
    66 Broy./Diag. 0.10E+00   14.1     0.00574885      -285.0490299951 -8.71E-03
    67 Broy./Diag. 0.10E+00   14.1     0.00697743      -285.0482822140  7.48E-04
    68 Broy./Diag. 0.10E+00   14.1     0.03665514      -285.0645575293 -1.63E-02
    69 Broy./Diag. 0.10E+00   14.1     0.03187501      -285.0456019044  1.90E-02
    70 Broy./Diag. 0.10E+00   14.1     0.03344365      -285.0460433706 -4.41E-04
    71 Broy./Diag. 0.10E+00   14.1     0.01173073      -285.0742148088 -2.82E-02
    72 Broy./Diag. 0.10E+00   14.1     0.01903358      -285.0864167714 -1.22E-02
    73 Broy./Diag. 0.10E+00   14.1     0.00852330      -285.0775776243  8.84E-03
    74 Broy./Diag. 0.10E+00   14.1     0.00549557      -285.0736279300  3.95E-03
    75 Broy./Diag. 0.10E+00   14.1     0.02447172      -285.0794343688 -5.81E-03
    76 Broy./Diag. 0.10E+00   14.1     0.01374891      -285.0833923913 -3.96E-03
    77 Broy./Diag. 0.10E+00   14.0     0.00497236      -285.0816292220  1.76E-03
    78 Broy./Diag. 0.10E+00   14.1     0.01163106      -285.0894312265 -7.80E-03
    79 Broy./Diag. 0.10E+00   14.1     0.00989444      -285.0814505717  7.98E-03
    80 Broy./Diag. 0.10E+00   14.1     0.00827056      -285.0767454685  4.71E-03
    81 Broy./Diag. 0.10E+00   14.1     0.05436960      -285.0821837242 -5.44E-03
    82 Broy./Diag. 0.10E+00   14.1     0.02345318      -285.0592107718  2.30E-02
    83 Broy./Diag. 0.10E+00   14.1     0.00563318      -285.0623162230 -3.11E-03
    84 Broy./Diag. 0.10E+00   14.1     0.02295850      -285.0450389164  1.73E-02
    85 Broy./Diag. 0.10E+00   14.1     0.00470687      -285.0420057446  3.03E-03
    86 Broy./Diag. 0.10E+00   14.1     0.06064178      -285.0147082732  2.73E-02
    87 Broy./Diag. 0.10E+00   14.1     0.02642796      -285.1006041966 -8.59E-02
    88 Broy./Diag. 0.10E+00   14.1     0.01645233      -285.0733184485  2.73E-02
    89 Broy./Diag. 0.10E+00   14.1     0.01625643      -285.0763778182 -3.06E-03
    90 Broy./Diag. 0.10E+00   14.1     0.00267039      -285.0695445074  6.83E-03
    91 Broy./Diag. 0.10E+00   14.1     0.00646839      -285.0714465475 -1.90E-03
    92 Broy./Diag. 0.10E+00   14.1     0.00487395      -285.0650603085  6.39E-03
    93 Broy./Diag. 0.10E+00   14.1     0.00343295      -285.0636868391  1.37E-03
    94 Broy./Diag. 0.10E+00   14.1     0.01647195      -285.0612776832  2.41E-03
    95 Broy./Diag. 0.10E+00   14.1     0.01303687      -285.0762424468 -1.50E-02
    96 Broy./Diag. 0.10E+00   14.1     0.01649625      -285.0549510757  2.13E-02
    97 Broy./Diag. 0.10E+00   14.1     0.00407791      -285.0540635493  8.88E-04
    98 Broy./Diag. 0.10E+00   14.1     0.01612244      -285.0460124187  8.05E-03
    99 Broy./Diag. 0.10E+00   14.1     0.00765987      -285.0343918957  1.16E-02
   100 Broy./Diag. 0.10E+00   14.1     0.01572175      -285.0210875266  1.33E-02

  Leaving inner SCF loop after reaching   100 steps.


  Electronic density on regular grids:       -177.0000012788       -0.0000012788
  Core density on regular grids:              176.9999999999       -0.0000000001
  Total charge density on r-space grids:       -0.0000012790
  Total charge density g-space grids:          -0.0000012790

  Overlap energy of the core charge distribution:               0.00000836868231
  Self energy of the core charge distribution:               -656.67682311856515
  Core Hamiltonian energy:                                    203.22282198434209
  Hartree energy:                                             248.05693827502444
  Exchange-correlation energy:                                -79.58163285201010
  Dispersion energy:                                           -0.04068283049687
  Electronic entropic energy:                                  -0.00157729595997
  Fermi energy:                                                -0.14898635538478

  Total energy:                                              -285.02108752663457

  outer SCF iter =  117 RMS gradient =   0.16E-01 energy =       -285.0210875266
     1 Broy./Diag. 0.10E+00   20.7     0.24955575      -285.0022526081  1.88E-02
     2 Broy./Diag. 0.10E+00   14.1     0.25627114      -285.5467797148 -5.45E-01
     3 Broy./Diag. 0.10E+00   14.1     0.01466265      -285.0354798500  5.11E-01
     4 Broy./Diag. 0.10E+00   14.1     0.01430095      -285.0616514676 -2.62E-02
     5 Broy./Diag. 0.10E+00   14.1     0.01537803      -285.0672776756 -5.63E-03
     6 Broy./Diag. 0.10E+00   14.1     0.02169577      -285.0566364624  1.06E-02
     7 Broy./Diag. 0.10E+00   14.1     0.00997582      -285.0211720724  3.55E-02
     8 Broy./Diag. 0.10E+00   14.1     0.01085035      -285.0277067089 -6.53E-03
     9 Broy./Diag. 0.10E+00   14.1     0.01305840      -285.0119258509  1.58E-02
    10 Broy./Diag. 0.10E+00   14.1     0.00392702      -285.0292601302 -1.73E-02
    11 Broy./Diag. 0.10E+00   14.1     0.01616155      -285.0366161035 -7.36E-03
    12 Broy./Diag. 0.10E+00   14.1     0.01126599      -285.0271049329  9.51E-03
    13 Broy./Diag. 0.10E+00   14.1     0.01937592      -285.0338292654 -6.72E-03
    14 Broy./Diag. 0.10E+00   14.1     0.01320044      -285.0332774527  5.52E-04
    15 Broy./Diag. 0.10E+00   14.1     0.00483841      -285.0372299206 -3.95E-03
    16 Broy./Diag. 0.10E+00   14.1     0.00441871      -285.0375361224 -3.06E-04
    17 Broy./Diag. 0.10E+00   14.1     0.01317008      -285.0317150270  5.82E-03
    18 Broy./Diag. 0.10E+00   14.1     0.02445120      -285.0277503753  3.96E-03
    19 Broy./Diag. 0.10E+00   14.1     0.02204304      -284.9898124380  3.79E-02
    20 Broy./Diag. 0.10E+00   14.1     0.01238433      -285.0183560934 -2.85E-02
    21 Broy./Diag. 0.10E+00   14.1     0.02714619      -285.0038748926  1.45E-02
    22 Broy./Diag. 0.10E+00   14.1     0.01635267      -285.0224115750 -1.85E-02
    23 Broy./Diag. 0.10E+00   14.1     0.02512086      -285.0050359465  1.74E-02
    24 Broy./Diag. 0.10E+00   14.1     0.01735392      -285.0018106124  3.23E-03
    25 Broy./Diag. 0.10E+00   14.1     0.01989943      -285.0003368030  1.47E-03
    26 Broy./Diag. 0.10E+00   14.1     0.01894890      -284.9934781668  6.86E-03
    27 Broy./Diag. 0.10E+00   14.1     0.04577182      -284.9454582877  4.80E-02
    28 Broy./Diag. 0.10E+00   14.1     0.02677420      -284.9901400929 -4.47E-02
    29 Broy./Diag. 0.10E+00   14.1     0.02769335      -285.0429802489 -5.28E-02
    30 Broy./Diag. 0.10E+00   14.1     0.01366551      -285.0402888544  2.69E-03
    31 Broy./Diag. 0.10E+00   14.1     0.01671119      -285.0673511328 -2.71E-02
    32 Broy./Diag. 0.10E+00   14.1     0.00709259      -285.0562280143  1.11E-02
    33 Broy./Diag. 0.10E+00   14.1     0.01063014      -285.0572434362 -1.02E-03
    34 Broy./Diag. 0.10E+00   14.1     0.00723492      -285.0551184624  2.12E-03
    35 Broy./Diag. 0.10E+00   14.1     0.00912546      -285.0509452632  4.17E-03
    36 Broy./Diag. 0.10E+00   14.1     0.02348899      -285.0583144009 -7.37E-03
    37 Broy./Diag. 0.10E+00   14.1     0.02037905      -285.0338118410  2.45E-02
    38 Broy./Diag. 0.10E+00   14.1     0.02411557      -285.0358081139 -2.00E-03
    39 Broy./Diag. 0.10E+00   14.1     0.00391513      -285.0416660289 -5.86E-03
    40 Broy./Diag. 0.10E+00   14.1     0.01702094      -285.0423104477 -6.44E-04
    41 Broy./Diag. 0.10E+00   14.1     0.03855572      -285.0175609280  2.47E-02
    42 Broy./Diag. 0.10E+00   14.1     0.04329415      -285.0608279292 -4.33E-02
    43 Broy./Diag. 0.10E+00   14.1     0.02145234      -285.0376124571  2.32E-02
    44 Broy./Diag. 0.10E+00   14.1     0.01082406      -285.0147810236  2.28E-02
    45 Broy./Diag. 0.10E+00   14.1     0.02291007      -285.0175371391 -2.76E-03
    46 Broy./Diag. 0.10E+00   14.1     0.04405601      -284.9952348926  2.23E-02
    47 Broy./Diag. 0.10E+00   14.1     0.03213305      -285.0100264296 -1.48E-02
    48 Broy./Diag. 0.10E+00   14.1     0.01015605      -284.9959851701  1.40E-02
    49 Broy./Diag. 0.10E+00   14.1     0.00679564      -284.9996178127 -3.63E-03
    50 Broy./Diag. 0.10E+00   14.1     0.02305393      -285.0006624408 -1.04E-03
    51 Broy./Diag. 0.10E+00   14.1     0.00397742      -284.9810411640  1.96E-02
    52 Broy./Diag. 0.10E+00   14.1     0.03138988      -284.9805671168  4.74E-04
    53 Broy./Diag. 0.10E+00   14.1     0.04228903      -284.9842863876 -3.72E-03
    54 Broy./Diag. 0.10E+00   14.1     0.01158478      -285.0103951835 -2.61E-02
    55 Broy./Diag. 0.10E+00   14.1     0.04851651      -285.0407439167 -3.03E-02
    56 Broy./Diag. 0.10E+00   14.1     0.00771190      -285.0431983292 -2.45E-03
    57 Broy./Diag. 0.10E+00   14.1     0.01279417      -285.0284887895  1.47E-02
    58 Broy./Diag. 0.10E+00   14.1     0.02300025      -285.0482220938 -1.97E-02
    59 Broy./Diag. 0.10E+00   14.1     0.00349145      -285.0382897702  9.93E-03
    60 Broy./Diag. 0.10E+00   14.1     0.02374224      -285.0436758051 -5.39E-03
    61 Broy./Diag. 0.10E+00   14.1     0.09721332      -285.0026401171  4.10E-02
    62 Broy./Diag. 0.10E+00   14.1     0.13465992      -284.9971204981  5.52E-03
    63 Broy./Diag. 0.10E+00   14.1     0.02101061      -285.0092002618 -1.21E-02
    64 Broy./Diag. 0.10E+00   14.1     0.00355980      -285.0425231269 -3.33E-02
    65 Broy./Diag. 0.10E+00   14.1     0.02040166      -285.0472270248 -4.70E-03
    66 Broy./Diag. 0.10E+00   14.1     0.04238272      -285.0336476838  1.36E-02
    67 Broy./Diag. 0.10E+00   14.1     0.10938519      -285.0036175669  3.00E-02
    68 Broy./Diag. 0.10E+00   14.1     0.01593522      -285.0191084401 -1.55E-02
    69 Broy./Diag. 0.10E+00   14.1     0.01295999      -285.0063808860  1.27E-02
    70 Broy./Diag. 0.10E+00   14.1     0.01133740      -285.0225556314 -1.62E-02
    71 Broy./Diag. 0.10E+00   14.1     0.02417921      -285.0260662672 -3.51E-03
    72 Broy./Diag. 0.10E+00   14.1     0.04594279      -285.0349035290 -8.84E-03
    73 Broy./Diag. 0.10E+00   14.1     0.00834213      -285.0017112714  3.32E-02
    74 Broy./Diag. 0.10E+00   14.1     0.02191974      -285.0170066218 -1.53E-02
    75 Broy./Diag. 0.10E+00   14.1     0.00622002      -285.0097797277  7.23E-03
    76 Broy./Diag. 0.10E+00   14.1     0.01104858      -285.0136933211 -3.91E-03
    77 Broy./Diag. 0.10E+00   14.1     0.00971127      -285.0036731779  1.00E-02
    78 Broy./Diag. 0.10E+00   14.1     0.01181331      -284.9976876580  5.99E-03
    79 Broy./Diag. 0.10E+00   14.1     0.02728885      -285.0116887870 -1.40E-02
    80 Broy./Diag. 0.10E+00   14.1     0.00795417      -285.0182438287 -6.56E-03
    81 Broy./Diag. 0.10E+00   14.1     0.00777560      -285.0248642603 -6.62E-03
    82 Broy./Diag. 0.10E+00   14.1     0.01505682      -285.0269439061 -2.08E-03
    83 Broy./Diag. 0.10E+00   14.2     0.05070551      -285.0350088402 -8.06E-03
    84 Broy./Diag. 0.10E+00   14.1     0.01068251      -285.0471181824 -1.21E-02
    85 Broy./Diag. 0.10E+00   14.1     0.01663868      -285.0500727682 -2.95E-03
    86 Broy./Diag. 0.10E+00   14.1     0.01523836      -285.0371893607  1.29E-02
    87 Broy./Diag. 0.10E+00   14.1     0.01243062      -285.0477959298 -1.06E-02
    88 Broy./Diag. 0.10E+00   14.1     0.00763917      -285.0329749433  1.48E-02
    89 Broy./Diag. 0.10E+00   14.1     0.01507604      -285.0457024866 -1.27E-02
    90 Broy./Diag. 0.10E+00   14.1     0.01453346      -285.0321428517  1.36E-02
    91 Broy./Diag. 0.10E+00   14.2     0.01250609      -285.0500236948 -1.79E-02
    92 Broy./Diag. 0.10E+00   14.2     0.00652540      -285.0519114867 -1.89E-03
    93 Broy./Diag. 0.10E+00   14.2     0.01914827      -285.0551455157 -3.23E-03
    94 Broy./Diag. 0.10E+00   14.2     0.01284888      -285.0620573889 -6.91E-03
    95 Broy./Diag. 0.10E+00   14.1     0.00500592      -285.0678445106 -5.79E-03
    96 Broy./Diag. 0.10E+00   14.1     0.02242423      -285.0643357799  3.51E-03
    97 Broy./Diag. 0.10E+00   14.1     0.00933471      -285.0622514292  2.08E-03
    98 Broy./Diag. 0.10E+00   14.1     0.01282762      -285.0598716063  2.38E-03
    99 Broy./Diag. 0.10E+00   14.1     0.01489252      -285.0543056125  5.57E-03
   100 Broy./Diag. 0.10E+00   14.1     0.00307924      -285.0677253725 -1.34E-02

  Leaving inner SCF loop after reaching   100 steps.


  Electronic density on regular grids:       -177.0000012788       -0.0000012788
  Core density on regular grids:              176.9999999999       -0.0000000001
  Total charge density on r-space grids:       -0.0000012789
  Total charge density g-space grids:          -0.0000012789

  Overlap energy of the core charge distribution:               0.00000836868231
  Self energy of the core charge distribution:               -656.67682311856515
  Core Hamiltonian energy:                                    203.19052949232091
  Hartree energy:                                             248.04558602949083
  Exchange-correlation energy:                                -79.58433333185928
  Dispersion energy:                                           -0.04068283049687
  Electronic entropic energy:                                  -0.00198777170600
  Fermi energy:                                                -0.14904141591491

  Total energy:                                              -285.06772537253636

  outer SCF iter =  118 RMS gradient =   0.31E-02 energy =       -285.0677253725
     1 Broy./Diag. 0.10E+00   20.7     0.21452584      -285.0186538641  4.91E-02
     2 Broy./Diag. 0.10E+00   14.1     0.21456925      -285.5866873390 -5.68E-01
     3 Broy./Diag. 0.10E+00   14.1     0.01434209      -285.0705654202  5.16E-01
     4 Broy./Diag. 0.10E+00   14.1     0.01007810      -285.0767235622 -6.16E-03
     5 Broy./Diag. 0.10E+00   14.1     0.00484691      -285.0742201752  2.50E-03
     6 Broy./Diag. 0.10E+00   14.1     0.00726453      -285.0831878534 -8.97E-03
     7 Broy./Diag. 0.10E+00   14.1     0.01150443      -285.0946486730 -1.15E-02
     8 Broy./Diag. 0.10E+00   14.1     0.00653737      -285.0834852606  1.12E-02
     9 Broy./Diag. 0.10E+00   14.1     0.00878329      -285.0701814329  1.33E-02
    10 Broy./Diag. 0.10E+00   14.1     0.02269797      -285.0528383694  1.73E-02
    11 Broy./Diag. 0.10E+00   14.1     0.03379335      -285.0645920728 -1.18E-02
    12 Broy./Diag. 0.10E+00   14.1     0.00561504      -285.0718016567 -7.21E-03
    13 Broy./Diag. 0.10E+00   14.1     0.00855375      -285.0725107673 -7.09E-04
    14 Broy./Diag. 0.10E+00   14.1     0.01833255      -285.0773711344 -4.86E-03
    15 Broy./Diag. 0.10E+00   14.1     0.01202298      -285.0771859206  1.85E-04
    16 Broy./Diag. 0.10E+00   14.1     0.01482347      -285.0791347316 -1.95E-03
    17 Broy./Diag. 0.10E+00   14.1     0.00402731      -285.0766576549  2.48E-03
    18 Broy./Diag. 0.10E+00   14.1     0.01920712      -285.0799097772 -3.25E-03
    19 Broy./Diag. 0.10E+00   14.1     0.00698308      -285.0749566723  4.95E-03
    20 Broy./Diag. 0.10E+00   14.1     0.00295612      -285.0753878300 -4.31E-04
    21 Broy./Diag. 0.10E+00   14.1     0.01105103      -285.0776861970 -2.30E-03
    22 Broy./Diag. 0.10E+00   14.1     0.01724380      -285.0772493367  4.37E-04
