 *******************************************************************************
 *                            RESTART INFORMATION                              *
 *******************************************************************************
 *                                                                             *
 *    RESTART FILE NAME: ./graphene_armchair_BSSE-1_2.restart                  *
 *                                                                             *
 * RESTARTED QUANTITIES:                                                       *
 *                       CELL                                                  *
 *                       COORDINATES                                           *
 *                       RANDOM NUMBER GENERATOR                               *
 *                       VELOCITIES                                            *
 *                       BSSE FRAGMENT ENERGIES                                *
 *                       MD COUNTERS                                           *
 *                       GEO_OPT COUNTERS                                      *
 *                       CELL_OPT COUNTERS                                     *
 *                       MD AVERAGES                                           *
 *                       PARTICLE THERMOSTAT                                   *
 *                       CONSTRAINTS/RESTRAINTS                                *
 *                       REAL TIME PROPAGATION                                 *
 *                       PINT BEAD POSITIONS                                   *
 *                       PINT BEAD VELOCITIES                                  *
 *                       PINT NOSE THERMOSTAT                                  *
 *                       PINT GLE THERMOSTAT                                   *
 *                       HELIUM BEAD POSITIONS                                 *
 *                       HELIUM PERMUTATION STATE                              *
 *                       HELIUM FORCES ON SOLUTE                               *
 *                       HELIUM RNG STATE                                      *
 *******************************************************************************

 DBCSR| CPU Multiplication driver                                           BLAS (U)
 DBCSR| Multrec recursion limit                                              512 (U)
 DBCSR| Multiplication stack size                                           1000 (D)
 DBCSR| Maximum elements for images                                    UNLIMITED (U)
 DBCSR| Multiplicative factor virtual images                                   1 (U)
 DBCSR| Use multiplication densification                                       T (D)
 DBCSR| Multiplication size stacks                                             3 (U)
 DBCSR| Use memory pool for CPU allocation                                     F (U)
 DBCSR| Number of 3D layers                                               SINGLE (U)
 DBCSR| Use MPI memory allocation                                              F (U)
 DBCSR| Use RMA algorithm                                                      F (U)
 DBCSR| Use Communication thread                                               T (U)
 DBCSR| Communication thread load                                             87 (D)
 DBCSR| MPI: My process id                                                     0
 DBCSR| MPI: Number of processes                                              16
 DBCSR| OMP: Current number of threads                                         1
 DBCSR| OMP: Max number of threads                                             1
 DBCSR| Split modifier for TAS multiplication algorithm                  1.0E+00 (U)


  **** **** ******  **  PROGRAM STARTED AT               2025-06-03 14:22:31.342
 ***** ** ***  *** **   PROGRAM STARTED ON                            sebnode046
 **    ****   ******    PROGRAM STARTED BY                                luehrs
 ***** **    ** ** **   PROGRAM PROCESS ID                               1341308
  **** **  *******  **  PROGRAM STARTED IN /home/luehrs/PhD/Sodium_batteries/Sod
                                           ium-graphene-edge/Armchair_2/No_hydro
                                           gen

 CP2K| version string:                                       CP2K version 2023.1
 CP2K| source code revision number:                                  git:b888bd8
 CP2K| cp2kflags: omp libint fftw3 libxc elpa parallel scalapack spglib         
 CP2K| is freely available from                            https://www.cp2k.org/
 CP2K| Program compiled at                          Tue Jan 10 19:52:03 UTC 2023
 CP2K| Program compiled on                                            x86-ubc-01
 CP2K| Program compiled for                                Linux-x86_64-gfortran
 CP2K| Data directory path                                       /usr/share/cp2k
 CP2K| Input file name                                        input.armchair.inp

 GLOBAL| Force Environment number                                              1
 GLOBAL| Basis set file name                                      ./BASIS_MOLOPT
 GLOBAL| Potential file name                                    ./GTH_POTENTIALS
 GLOBAL| MM Potential file name                                     MM_POTENTIAL
 GLOBAL| Coordinate file name           ./graphene_armchair_no_hydrogen_relaxed.
 GLOBAL| Method name                                                        CP2K
 GLOBAL| Project name                                 graphene_armchair_BSSE_PBE
 GLOBAL| Run type                                                           BSSE
 GLOBAL| FFT library                                                       FFTW3
 GLOBAL| Diagonalization library                                            ELPA
 GLOBAL| DGEMM library                                                      BLAS
 GLOBAL| Minimum number of eigenvectors for ELPA usage                        16
 GLOBAL| Orthonormality check for eigenvectors                          DISABLED
 GLOBAL| Matrix multiplication library                                 ScaLAPACK
 GLOBAL| All-to-all communication in single precision                          F
 GLOBAL| FFTs using library dependent lengths                                  F
 GLOBAL| Grid backend                                                       AUTO
 GLOBAL| Global print level                                               MEDIUM
 GLOBAL| MPI I/O enabled                                                       T
 GLOBAL| Total number of message passing processes                            16
 GLOBAL| Number of threads for this process                                    1
 GLOBAL| This output is from process                                           0
 GLOBAL| Stack size for threads created by OpenMP (OMP_STACKSIZE)        default
 GLOBAL| CPU model name                Intel(R) Xeon(R) CPU E5-2630 v3 @ 2.40GHz

 MEMORY| system memory details [Kb]
 MEMORY|                        rank 0           min           max       average
 MEMORY| MemTotal             65828800      65828800      65828800      65828800
 MEMORY| MemFree              61654888      61654888      61654888      61654888
 MEMORY| Buffers                202832        202832        202832        202832
 MEMORY| Cached                1673936       1673936       1673936       1673936
 MEMORY| Slab                   319104        319104        319104        319104
 MEMORY| SReclaimable           149084        149084        149084        149084
 MEMORY| MemLikelyFree        63680740      63680740      63680740      63680740


 *** Fundamental physical constants (SI units) ***

 *** Literature: B. J. Mohr and B. N. Taylor,
 ***             CODATA recommended values of the fundamental physical
 ***             constants: 2006, Web Version 5.1
 ***             http://physics.nist.gov/constants

 Speed of light in vacuum [m/s]                             2.99792458000000E+08
 Magnetic constant or permeability of vacuum [N/A**2]       1.25663706143592E-06
 Electric constant or permittivity of vacuum [F/m]          8.85418781762039E-12
 Planck constant (h) [J*s]                                  6.62606896000000E-34
 Planck constant (h-bar) [J*s]                              1.05457162825177E-34
 Elementary charge [C]                                      1.60217648700000E-19
 Electron mass [kg]                                         9.10938215000000E-31
 Electron g factor [ ]                                     -2.00231930436220E+00
 Proton mass [kg]                                           1.67262163700000E-27
 Fine-structure constant                                    7.29735253760000E-03
 Rydberg constant [1/m]                                     1.09737315685270E+07
 Avogadro constant [1/mol]                                  6.02214179000000E+23
 Boltzmann constant [J/K]                                   1.38065040000000E-23
 Atomic mass unit [kg]                                      1.66053878200000E-27
 Bohr radius [m]                                            5.29177208590000E-11

 *** Conversion factors ***

 [u] -> [a.u.]                                              1.82288848426455E+03
 [Angstrom] -> [Bohr] = [a.u.]                              1.88972613288564E+00
 [a.u.] = [Bohr] -> [Angstrom]                              5.29177208590000E-01
 [a.u.] -> [s]                                              2.41888432650478E-17
 [a.u.] -> [fs]                                             2.41888432650478E-02
 [a.u.] -> [J]                                              4.35974393937059E-18
 [a.u.] -> [N]                                              8.23872205491840E-08
 [a.u.] -> [K]                                              3.15774647902944E+05
 [a.u.] -> [kJ/mol]                                         2.62549961709828E+03
 [a.u.] -> [kcal/mol]                                       6.27509468713739E+02
 [a.u.] -> [Pa]                                             2.94210107994716E+13
 [a.u.] -> [bar]                                            2.94210107994716E+08
 [a.u.] -> [atm]                                            2.90362800883016E+08
 [a.u.] -> [eV]                                             2.72113838565563E+01
 [a.u.] -> [Hz]                                             6.57968392072181E+15
 [a.u.] -> [1/cm] (wave numbers)                            2.19474631370540E+05
 [a.u./Bohr**2] -> [1/cm]                                   5.14048714338585E+03
 

 CELL_TOP| Volume [angstrom^3]:                                     15412.800000
 CELL_TOP| Vector a [angstrom    12.844     0.000     0.000   |a| =    12.844000
 CELL_TOP| Vector b [angstrom     0.000    30.000     0.000   |b| =    30.000000
 CELL_TOP| Vector c [angstrom     0.000     0.000    40.000   |c| =    40.000000
 CELL_TOP| Angle (b,c), alpha [degree]:                                90.000000
 CELL_TOP| Angle (a,c), beta  [degree]:                                90.000000
 CELL_TOP| Angle (a,b), gamma [degree]:                                90.000000
 CELL_TOP| Requested initial symmetry:                                 TRICLINIC
 CELL_TOP| Numerically orthorhombic:                                         YES
 CELL_TOP| Periodicity                                                       XYZ

 GENERATE|  Preliminary Number of Bonds generated:                             0
 GENERATE|  Achieved consistency in connectivity generation.

 CELL| Volume [angstrom^3]:                                         15412.800000
 CELL| Vector a [angstrom]:      12.844     0.000     0.000   |a| =    12.844000
 CELL| Vector b [angstrom]:       0.000    30.000     0.000   |b| =    30.000000
 CELL| Vector c [angstrom]:       0.000     0.000    40.000   |c| =    40.000000
 CELL| Angle (b,c), alpha [degree]:                                    90.000000
 CELL| Angle (a,c), beta  [degree]:                                    90.000000
 CELL| Angle (a,b), gamma [degree]:                                    90.000000
 CELL| Requested initial symmetry:                                     TRICLINIC
 CELL| Numerically orthorhombic:                                             YES
 CELL| Periodicity                                                           XYZ

 CELL_REF| Volume [angstrom^3]:                                     15412.800000
 CELL_REF| Vector a [angstrom    12.844     0.000     0.000   |a| =    12.844000
 CELL_REF| Vector b [angstrom     0.000    30.000     0.000   |b| =    30.000000
 CELL_REF| Vector c [angstrom     0.000     0.000    40.000   |c| =    40.000000
 CELL_REF| Angle (b,c), alpha [degree]:                                90.000000
 CELL_REF| Angle (a,c), beta  [degree]:                                90.000000
 CELL_REF| Angle (a,b), gamma [degree]:                                90.000000
 CELL_REF| Requested initial symmetry:                                 TRICLINIC
 CELL_REF| Numerically orthorhombic:                                         YES
 CELL_REF| Periodicity                                                       XYZ

 *******************************************************************************
 *******************************************************************************
 **                                                                           **
 **     #####                         ##              ##                      **
 **    ##   ##            ##          ##              ##                      **
 **   ##     ##                       ##            ######                    **
 **   ##     ##  ##   ##  ##   #####  ##  ##   ####   ##    #####    #####    **
 **   ##     ##  ##   ##  ##  ##      ## ##   ##      ##   ##   ##  ##   ##   **
 **   ##  ## ##  ##   ##  ##  ##      ####     ###    ##   ######   ######    **
 **    ##  ###   ##   ##  ##  ##      ## ##      ##   ##   ##       ##        **
 **     #######   #####   ##   #####  ##  ##  ####    ##    #####   ##        **
 **           ##                                                    ##        **
 **                                                                           **
 **                                                ... make the atoms dance   **
 **                                                                           **
 **            Copyright (C) by CP2K developers group (2000-2022)             **
 **                      J. Chem. Phys. 152, 194103 (2020)                    **
 **                                                                           **
 *******************************************************************************

 DFT| Spin unrestricted (spin-polarized) Kohn-Sham calculation               UKS
 DFT| Multiplicity                                                             1
 DFT| Number of spin states                                                    2
 DFT| Charge                                                                   1
 DFT| Self-interaction correction (SIC)                                       NO
 DFT| Cutoffs: density                                              1.000000E-10
 DFT|          gradient                                             1.000000E-10
 DFT|          tau                                                  1.000000E-10
 DFT|          cutoff_smoothing_range                               0.000000E+00
 DFT| XC density smoothing                                                  NONE
 DFT| XC derivatives                                              SPLINE2_SMOOTH

 FUNCTIONAL| PBE:
 FUNCTIONAL| J.P.Perdew, K.Burke, M.Ernzerhof, Phys. Rev. Letter, vol. 77, n 18,
 FUNCTIONAL|  pp. 3865-3868, (1996){spin polarized}                             

 vdW POTENTIAL|                                                   Pair Potential
 vdW POTENTIAL|          DFT-D3 (Version 3.1)
 vdW POTENTIAL|          Potential Form: S. Grimme et al, JCP 132: 154104 (2010)
 vdW POTENTIAL|          Zero Damping
 vdW POTENTIAL|          Cutoff Radius [Bohr]:                             20.00
 vdW POTENTIAL|          s6 Scaling Factor:                               1.0000
 vdW POTENTIAL|          sr6 Scaling Factor:                              1.2170
 vdW POTENTIAL|          s8 Scaling Factor:                               0.7220
 vdW POTENTIAL|          Cutoff for CN calculation:                   0.1000E-05

 QS| Method:                                                                 GPW
 QS| Density plane wave grid type                        NON-SPHERICAL FULLSPACE
 QS| Number of grid levels:                                                    4
 QS| Density cutoff [a.u.]:                                                250.0
 QS| Multi grid cutoff [a.u.]: 1) grid level                               250.0
 QS|                           2) grid level                                83.3
 QS|                           3) grid level                                27.8
 QS|                           4) grid level                                 9.3
 QS| Grid level progression factor:                                          3.0
 QS| Relative density cutoff [a.u.]:                                        20.0
 QS| Interaction thresholds: eps_pgf_orb:                                1.0E-06
 QS|                         eps_filter_matrix:                          0.0E+00
 QS|                         eps_core_charge:                            1.0E-14
 QS|                         eps_rho_gspace:                             1.0E-12
 QS|                         eps_rho_rspace:                             1.0E-12
 QS|                         eps_gvg_rspace:                             1.0E-06
 QS|                         eps_ppl:                                    1.0E-02
 QS|                         eps_ppnl:                                   1.0E-08


 ATOMIC KIND INFORMATION

  1. Atomic kind: C                                     Number of atoms:      42

     Orbital Basis Set                                        DZVP-MOLOPT-SR-GTH

       Number of orbital shell sets:                                           1
       Number of orbital shells:                                               5
       Number of primitive Cartesian functions:                                5
       Number of Cartesian basis functions:                                   14
       Number of spherical basis functions:                                   13
       Norm type:                                                              2

       Normalised Cartesian orbitals:

                        Set   Shell   Orbital            Exponent    Coefficient

                          1       1    2s                5.605331       0.322515
                                                         2.113016       0.213043
                                                         0.769911      -0.209686
                                                         0.348157      -0.219794
                                                         0.128212      -0.022789

                          1       2    3s                5.605331       0.552234
                                                         2.113016       0.082072
                                                         0.769911       0.007843
                                                         0.348157       0.136893
                                                         0.128212       0.074283

                          1       3    3px               5.605331      -0.703879
                                                         2.113016      -0.642521
                                                         0.769911      -0.374851
                                                         0.348157      -0.139743
                                                         0.128212      -0.027849
                          1       3    3py               5.605331      -0.703879
                                                         2.113016      -0.642521
                                                         0.769911      -0.374851
                                                         0.348157      -0.139743
                                                         0.128212      -0.027849
                          1       3    3pz               5.605331      -0.703879
                                                         2.113016      -0.642521
                                                         0.769911      -0.374851
                                                         0.348157      -0.139743
                                                         0.128212      -0.027849

                          1       4    4px               5.605331      -0.480376
                                                         2.113016      -0.552894
                                                         0.769911      -0.316145
                                                         0.348157       0.210505
                                                         0.128212       0.076095
                          1       4    4py               5.605331      -0.480376
                                                         2.113016      -0.552894
                                                         0.769911      -0.316145
                                                         0.348157       0.210505
                                                         0.128212       0.076095
                          1       4    4pz               5.605331      -0.480376
                                                         2.113016      -0.552894
                                                         0.769911      -0.316145
                                                         0.348157       0.210505
                                                         0.128212       0.076095

                          1       5    4dx2              5.605331       0.640026
                                                         2.113016       0.274300
                                                         0.769911       0.446711
                                                         0.348157       0.028674
                                                         0.128212       0.029790
                          1       5    4dxy              5.605331       1.108557
                                                         2.113016       0.475102
                                                         0.769911       0.773726
                                                         0.348157       0.049666
                                                         0.128212       0.051599
                          1       5    4dxz              5.605331       1.108557
                                                         2.113016       0.475102
                                                         0.769911       0.773726
                                                         0.348157       0.049666
                                                         0.128212       0.051599
                          1       5    4dy2              5.605331       0.640026
                                                         2.113016       0.274300
                                                         0.769911       0.446711
                                                         0.348157       0.028674
                                                         0.128212       0.029790
                          1       5    4dyz              5.605331       1.108557
                                                         2.113016       0.475102
                                                         0.769911       0.773726
                                                         0.348157       0.049666
                                                         0.128212       0.051599
                          1       5    4dz2              5.605331       0.640026
                                                         2.113016       0.274300
                                                         0.769911       0.446711
                                                         0.348157       0.028674
                                                         0.128212       0.029790

       Atomic covalent radius [Angstrom]:                                  0.770

       Atomic van der Waals radius [Angstrom]:                             1.700

     GTH Potential information for                                    GTH-PBE-q4

       Description:                       Goedecker-Teter-Hutter pseudopotential
                                           Goedecker et al., PRB 54, 1703 (1996)
                                          Hartwigsen et al., PRB 58, 3641 (1998)
                                                      Krack, TCA 114, 145 (2005)

       Gaussian exponent of the core charge distribution:               4.364419
       Electronic configuration (s p d ...):                               2   2

       Parameters of the local part of the GTH pseudopotential:

                          rloc        C1          C2          C3          C4
                        0.338471   -8.803674    1.339211

       Parameters of the non-local part of the GTH pseudopotential:

                   l      r(l)      h(i,j,l)

                   0    0.302576    9.622487
                   1    0.291507

  2. Atomic kind: Na                                    Number of atoms:       1

     Orbital Basis Set                                        DZVP-MOLOPT-SR-GTH

       Number of orbital shell sets:                                           1
       Number of orbital shells:                                               5
       Number of primitive Cartesian functions:                                7
       Number of Cartesian basis functions:                                    9
       Number of spherical basis functions:                                    9
       Norm type:                                                              2

       Normalised Cartesian orbitals:

                        Set   Shell   Orbital            Exponent    Coefficient

                          1       1    2s               23.518801       0.288931
                                                        11.135656       0.787174
                                                         4.647814      -0.190850
                                                         1.866708      -0.573823
                                                         0.734684      -0.276866
                                                         0.275673      -0.024211
                                                         0.049895      -0.000019

                          1       2    3s               23.518801       0.039212
                                                        11.135656       0.138585
                                                         4.647814      -0.048916
                                                         1.866708      -0.102378
                                                         0.734684      -0.139633
                                                         0.275673       0.012767
                                                         0.049895       0.077569

                          1       3    4s               23.518801       0.303698
                                                        11.135656      -0.548845
                                                         4.647814       0.534441
                                                         1.866708      -0.220920
                                                         0.734684       0.980584
                                                         0.275673      -0.653367
                                                         0.049895       0.063703

                          1       4    3px              23.518801      -2.919466
                                                        11.135656      -2.855941
                                                         4.647814      -2.579491
                                                         1.866708      -1.208264
                                                         0.734684      -0.321406
                                                         0.275673      -0.035032
                                                         0.049895      -0.000067
                          1       4    3py              23.518801      -2.919466
                                                        11.135656      -2.855941
                                                         4.647814      -2.579491
                                                         1.866708      -1.208264
                                                         0.734684      -0.321406
                                                         0.275673      -0.035032
                                                         0.049895      -0.000067
                          1       4    3pz              23.518801      -2.919466
                                                        11.135656      -2.855941
                                                         4.647814      -2.579491
                                                         1.866708      -1.208264
                                                         0.734684      -0.321406
                                                         0.275673      -0.035032
                                                         0.049895      -0.000067

                          1       5    4px              23.518801      -0.381914
                                                        11.135656      -0.488169
                                                         4.647814      -0.407378
                                                         1.866708      -0.201739
                                                         0.734684      -0.078845
                                                         0.275673       0.043427
                                                         0.049895       0.031563
                          1       5    4py              23.518801      -0.381914
                                                        11.135656      -0.488169
                                                         4.647814      -0.407378
                                                         1.866708      -0.201739
                                                         0.734684      -0.078845
                                                         0.275673       0.043427
                                                         0.049895       0.031563
                          1       5    4pz              23.518801      -0.381914
                                                        11.135656      -0.488169
                                                         4.647814      -0.407378
                                                         1.866708      -0.201739
                                                         0.734684      -0.078845
                                                         0.275673       0.043427
                                                         0.049895       0.031563

       Atomic covalent radius [Angstrom]:                                  1.540

       Atomic van der Waals radius [Angstrom]:                             2.270

     GTH Potential information for                                    GTH-PBE-q9

       Description:                       Goedecker-Teter-Hutter pseudopotential
                                           Goedecker et al., PRB 54, 1703 (1996)
                                          Hartwigsen et al., PRB 58, 3641 (1998)
                                                      Krack, TCA 114, 145 (2005)

       Gaussian exponent of the core charge distribution:               8.937631
       Electronic configuration (s p d ...):                               3   6

       Parameters of the local part of the GTH pseudopotential:

                          rloc        C1          C2          C3          C4
                        0.236523    0.295105   -0.913885

       Parameters of the non-local part of the GTH pseudopotential:

                   l      r(l)      h(i,j,l)

                   0    0.143560   34.601492
                   1    0.129932  -14.277462


 MOLECULE KIND INFORMATION


 All atoms are their own molecule, skipping detailed information


 TOTAL NUMBERS AND MAXIMUM NUMBERS

  Total number of            - Atomic kinds:                                   2
                             - Atoms:                                         43
                             - Shell sets:                                    43
                             - Shells:                                       215
                             - Primitive Cartesian functions:                217
                             - Cartesian basis functions:                    597
                             - Spherical basis functions:                    555

  Maximum angular momentum of- Orbital basis functions:                        2
                             - Local part of the GTH pseudopotential:          2
                             - Non-local part of the GTH pseudopotential:      1


 MODULE QUICKSTEP: ATOMIC COORDINATES IN ANGSTROM

   Atom Kind Element         X             Y             Z       Z(eff)     Mass
      1    1 C     6      0.694560     -1.175500     -0.001080   4.0000  12.0107
      2    1 C     6      0.000000      0.000000      0.000000   4.0000  12.0107
      3    1 C     6      0.604390      1.277760     -0.012280   4.0000  12.0107
      4    1 C     6      0.054290      2.530320     -0.021840   4.0000  12.0107
      5    1 C     6      0.589830      3.791460     -0.069530   4.0000  12.0107
      6    1 C     6     -0.026340      5.060010     -0.096760   4.0000  12.0107
      7    1 C     6      0.662760      6.240110     -0.159280   4.0000  12.0107
      8    1 C     6      2.069120      6.230210     -0.188350   4.0000  12.0107
      9    1 C     6      2.092310      3.785810     -0.095990   4.0000  12.0107
     10    1 C     6      2.802150      2.544270     -0.066540   4.0000  12.0107
     11    1 C     6      2.107440      1.297480     -0.026040   4.0000  12.0107
     12    1 C     6      2.818380      0.054480     -0.009740   4.0000  12.0107
     13    1 C     6      2.103880     -1.155070      0.000460   4.0000  12.0107
     14    1 C     6      2.795710      5.028190     -0.156950   4.0000  12.0107
     15    1 C     6      4.975940      6.214880     -0.241670   4.0000  12.0107
     16    1 C     6      4.265470      5.029770     -0.176540   4.0000  12.0107
     17    1 C     6      4.983090      3.776320     -0.123790   4.0000  12.0107
     18    1 C     6      4.264140      2.557840     -0.078590   4.0000  12.0107
     19    1 C     6      4.987280      1.307110     -0.043640   4.0000  12.0107
     20    1 C     6      4.278880      0.073720     -0.012410   4.0000  12.0107
     21    1 C     6      5.021760     -1.133230      0.008730   4.0000  12.0107
     22    1 C     6      6.396430     -1.140260      0.009300   4.0000  12.0107
     23    1 C     6      7.139000      0.066510     -0.008990   4.0000  12.0107
     24    1 C     6      6.430500      1.307660     -0.042700   4.0000  12.0107
     25    1 C     6      7.158640      2.552530     -0.076820   4.0000  12.0107
     26    1 C     6      6.437040      3.801090     -0.124130   4.0000  12.0107
     27    1 C     6      7.155680      5.034710     -0.165680   4.0000  12.0107
     28    1 C     6      6.399080      6.318960     -0.225640   4.0000  12.0107
     29    1 C     6      9.344700      6.239600     -0.159560   4.0000  12.0107
     30    1 C     6      8.602930      5.025720     -0.143640   4.0000  12.0107
     31    1 C     6      9.309620      3.780570     -0.092940   4.0000  12.0107
     32    1 C     6      8.602260      2.538820     -0.067180   4.0000  12.0107
     33    1 C     6      9.302400      1.282720     -0.031490   4.0000  12.0107
     34    1 C     6      8.592060      0.049580     -0.005400   4.0000  12.0107
     35    1 C     6      9.313020     -1.170640      0.014390   4.0000  12.0107
     36    1 C     6     10.712380     -1.182590      0.015260   4.0000  12.0107
     37    1 C     6     11.417330      0.000000      0.000000   4.0000  12.0107
     38    1 C     6     10.792700      1.267400     -0.026680   4.0000  12.0107
     39    1 C     6     11.360950      2.522490     -0.046120   4.0000  12.0107
     40    1 C     6     10.810620      3.781110     -0.069480   4.0000  12.0107
     41    1 C     6     11.421210      5.049880     -0.079770   4.0000  12.0107
     42    1 C     6     10.745480      6.241010     -0.117860   4.0000  12.0107
     43    2 Na   11      2.086990      6.319710      2.499280   9.0000  22.9898



 SCF PARAMETERS         Density guess:                                    ATOMIC
                        --------------------------------------------------------
                        max_scf:                                             100
                        max_scf_history:                                       0
                        max_diis:                                              4
                        --------------------------------------------------------
                        eps_scf:                                        3.00E-07
                        eps_scf_history:                                0.00E+00
                        eps_diis:                                       1.00E-01
                        eps_eigval:                                     1.00E-05
                        --------------------------------------------------------
                        level_shift [a.u.]:                             0.000000
                        added MOs                                       100  100
                        --------------------------------------------------------
                        Mixing method:                            BROYDEN_MIXING
                                                charge density mixing in g-space
                        --------------------------------------------------------
                        Smear method:                                FERMI_DIRAC
                        Electronic temperature [K]:                        300.0
                        Electronic temperature [a.u.]:                  9.50E-04
                        Accuracy threshold:                             1.00E-10
                        --------------------------------------------------------
                        Outer loop SCF in use 
                        No variables optimised in outer loop
                        eps_scf                                         1.00E-06
                        max_scf                                              150
                        DIIS optimization
                        DIIS buffer length                                     3
                        step_size                                       5.00E-01

 PW_GRID| Information for grid number                                          1
 PW_GRID| Grid distributed over                                    16 processors
 PW_GRID| Real space group dimensions                                    16    1
 PW_GRID| the grid is blocked:                                                NO
 PW_GRID| Cutoff [a.u.]                                                    250.0
 PW_GRID| spherical cutoff:                                                   NO
 PW_GRID|   Bounds   1            -90      89                Points:         180
 PW_GRID|   Bounds   2           -202     202                Points:         405
 PW_GRID|   Bounds   3           -270     269                Points:         540
 PW_GRID| Volume element (a.u.^3)  0.2642E-02     Volume (a.u.^3)    104010.7313
 PW_GRID| Grid span                                                    FULLSPACE
 PW_GRID|   Distribution                         Average         Max         Min
 PW_GRID|   G-Vectors                          2460375.0     2460420     2460240
 PW_GRID|   G-Rays                               13668.8       13669       13668
 PW_GRID|   Real Space Points                  2460375.0     2624400     2405700

 PW_GRID| Information for grid number                                          2
 PW_GRID| Number of the reference grid                                         1
 PW_GRID| Grid distributed over                                    16 processors
 PW_GRID| Real space group dimensions                                    16    1
 PW_GRID| the grid is blocked:                                                NO
 PW_GRID| Cutoff [a.u.]                                                     83.3
 PW_GRID| spherical cutoff:                                                   NO
 PW_GRID|   Bounds   1            -50      49                Points:         100
 PW_GRID|   Bounds   2           -120     119                Points:         240
 PW_GRID|   Bounds   3           -160     159                Points:         320
 PW_GRID| Volume element (a.u.^3)  0.1354E-01     Volume (a.u.^3)    104010.7313
 PW_GRID| Grid span                                                    FULLSPACE
 PW_GRID|   Distribution                         Average         Max         Min
 PW_GRID|   G-Vectors                           480000.0      480400      479600
 PW_GRID|   G-Rays                                4800.0        4804        4796
 PW_GRID|   Real Space Points                   480000.0      537600      460800

 PW_GRID| Information for grid number                                          3
 PW_GRID| Number of the reference grid                                         1
 PW_GRID| Grid distributed over                                    16 processors
 PW_GRID| Real space group dimensions                                    16    1
 PW_GRID| the grid is blocked:                                                NO
 PW_GRID| Cutoff [a.u.]                                                     27.8
 PW_GRID| spherical cutoff:                                                   NO
 PW_GRID|   Bounds   1            -30      29                Points:          60
 PW_GRID|   Bounds   2            -67      67                Points:         135
 PW_GRID|   Bounds   3            -90      89                Points:         180
 PW_GRID| Volume element (a.u.^3)  0.7134E-01     Volume (a.u.^3)    104010.7313
 PW_GRID| Grid span                                                    FULLSPACE
 PW_GRID|   Distribution                         Average         Max         Min
 PW_GRID|   G-Vectors                            91125.0       91260       91020
 PW_GRID|   G-Rays                                1518.8        1521        1517
 PW_GRID|   Real Space Points                    91125.0       97200       72900

 PW_GRID| Information for grid number                                          4
 PW_GRID| Number of the reference grid                                         1
 PW_GRID| Grid distributed over                                    16 processors
 PW_GRID| Real space group dimensions                                    16    1
 PW_GRID| the grid is blocked:                                                NO
 PW_GRID| Cutoff [a.u.]                                                      9.3
 PW_GRID| spherical cutoff:                                                   NO
 PW_GRID|   Bounds   1            -18      17                Points:          36
 PW_GRID|   Bounds   2            -40      39                Points:          80
 PW_GRID|   Bounds   3            -54      53                Points:         108
 PW_GRID| Volume element (a.u.^3)  0.3344         Volume (a.u.^3)    104010.7313
 PW_GRID| Grid span                                                    FULLSPACE
 PW_GRID|   Distribution                         Average         Max         Min
 PW_GRID|   G-Vectors                            19440.0       19548       19332
 PW_GRID|   G-Rays                                 540.0         543         537
 PW_GRID|   Real Space Points                    19440.0       25920       17280

 POISSON| Solver                                                        PERIODIC
 POISSON| Periodicity                                                        XYZ

 RS_GRID| Information for grid number                                          1
 RS_GRID|   Bounds   1            -90      89                Points:         180
 RS_GRID|   Bounds   2           -202     202                Points:         405
 RS_GRID|   Bounds   3           -270     269                Points:         540
 RS_GRID| Real space distribution over                                  4 groups
 RS_GRID| Real space distribution along direction                              2
 RS_GRID| Border size                                                         23
 RS_GRID| Real space distribution over                                  4 groups
 RS_GRID| Real space distribution along direction                              3
 RS_GRID| Border size                                                         23
 RS_GRID|   Distribution                         Average         Max         Min
 RS_GRID|   Planes                                 147.2         148         147
 RS_GRID|   Distribution                         Average         Max         Min
 RS_GRID|   Planes                                 181.0         181         181

 RS_GRID| Information for grid number                                          2
 RS_GRID|   Bounds   1            -50      49                Points:         100
 RS_GRID|   Bounds   2           -120     119                Points:         240
 RS_GRID|   Bounds   3           -160     159                Points:         320
 RS_GRID| Real space distribution over                                  4 groups
 RS_GRID| Real space distribution along direction                              2
 RS_GRID| Border size                                                         22
 RS_GRID| Real space distribution over                                  4 groups
 RS_GRID| Real space distribution along direction                              3
 RS_GRID| Border size                                                         22
 RS_GRID|   Distribution                         Average         Max         Min
 RS_GRID|   Planes                                 104.0         104         104
 RS_GRID|   Distribution                         Average         Max         Min
 RS_GRID|   Planes                                 124.0         124         124

 RS_GRID| Information for grid number                                          3
 RS_GRID|   Bounds   1            -30      29                Points:          60
 RS_GRID|   Bounds   2            -67      67                Points:         135
 RS_GRID|   Bounds   3            -90      89                Points:         180
 RS_GRID| Real space fully replicated
 RS_GRID| Group size                                                           1

 RS_GRID| Information for grid number                                          4
 RS_GRID|   Bounds   1            -18      17                Points:          36
 RS_GRID|   Bounds   2            -40      39                Points:          80
 RS_GRID|   Bounds   3            -54      53                Points:         108
 RS_GRID| Real space fully replicated
 RS_GRID| Group size                                                           1

 -------------------------------------------------------------------------------
 -                                                                             -
 -  BSSE CALCULATION         FRAGMENT CONF: 11        FRAGMENT SUBCONF: 10     -
 -                           CHARGE =     0           MULTIPLICITY =     0     -
 -                                                                             -
 -                 ATOM INDEX                              ATOM NAME           -
 -                 ----------                              ---------           -
 -                      1                                   C                  -
 -                      2                                   C                  -
 -                      3                                   C                  -
 -                      4                                   C                  -
 -                      5                                   C                  -
 -                      6                                   C                  -
 -                      7                                   C                  -
 -                      8                                   C                  -
 -                      9                                   C                  -
 -                     10                                   C                  -
 -                     11                                   C                  -
 -                     12                                   C                  -
 -                     13                                   C                  -
 -                     14                                   C                  -
 -                     15                                   C                  -
 -                     16                                   C                  -
 -                     17                                   C                  -
 -                     18                                   C                  -
 -                     19                                   C                  -
 -                     20                                   C                  -
 -                     21                                   C                  -
 -                     22                                   C                  -
 -                     23                                   C                  -
 -                     24                                   C                  -
 -                     25                                   C                  -
 -                     26                                   C                  -
 -                     27                                   C                  -
 -                     28                                   C                  -
 -                     29                                   C                  -
 -                     30                                   C                  -
 -                     31                                   C                  -
 -                     32                                   C                  -
 -                     33                                   C                  -
 -                     34                                   C                  -
 -                     35                                   C                  -
 -                     36                                   C                  -
 -                     37                                   C                  -
 -                     38                                   C                  -
 -                     39                                   C                  -
 -                     40                                   C                  -
 -                     41                                   C                  -
 -                     42                                   C                  -
 -                     43                                   Na_ghost           -
 -------------------------------------------------------------------------------

 CELL| Volume [angstrom^3]:                                         15412.800000
 CELL| Vector a [angstrom]:      12.844     0.000     0.000   |a| =    12.844000
 CELL| Vector b [angstrom]:       0.000    30.000     0.000   |b| =    30.000000
 CELL| Vector c [angstrom]:       0.000     0.000    40.000   |c| =    40.000000
 CELL| Angle (b,c), alpha [degree]:                                    90.000000
 CELL| Angle (a,c), beta  [degree]:                                    90.000000
 CELL| Angle (a,b), gamma [degree]:                                    90.000000
 CELL| Requested initial symmetry:                                     TRICLINIC
 CELL| Numerically orthorhombic:                                             YES
 CELL| Periodicity                                                           XYZ

 CELL_REF| Volume [angstrom^3]:                                     15412.800000
 CELL_REF| Vector a [angstrom    12.844     0.000     0.000   |a| =    12.844000
 CELL_REF| Vector b [angstrom     0.000    30.000     0.000   |b| =    30.000000
 CELL_REF| Vector c [angstrom     0.000     0.000    40.000   |c| =    40.000000
 CELL_REF| Angle (b,c), alpha [degree]:                                90.000000
 CELL_REF| Angle (a,c), beta  [degree]:                                90.000000
 CELL_REF| Angle (a,b), gamma [degree]:                                90.000000
 CELL_REF| Requested initial symmetry:                                 TRICLINIC
 CELL_REF| Numerically orthorhombic:                                         YES
 CELL_REF| Periodicity                                                       XYZ

 *******************************************************************************
 *******************************************************************************
 **                                                                           **
 **     #####                         ##              ##                      **
 **    ##   ##            ##          ##              ##                      **
 **   ##     ##                       ##            ######                    **
 **   ##     ##  ##   ##  ##   #####  ##  ##   ####   ##    #####    #####    **
 **   ##     ##  ##   ##  ##  ##      ## ##   ##      ##   ##   ##  ##   ##   **
 **   ##  ## ##  ##   ##  ##  ##      ####     ###    ##   ######   ######    **
 **    ##  ###   ##   ##  ##  ##      ## ##      ##   ##   ##       ##        **
 **     #######   #####   ##   #####  ##  ##  ####    ##    #####   ##        **
 **           ##                                                    ##        **
 **                                                                           **
 **                                                ... make the atoms dance   **
 **                                                                           **
 **            Copyright (C) by CP2K developers group (2000-2022)             **
 **                      J. Chem. Phys. 152, 194103 (2020)                    **
 **                                                                           **
 *******************************************************************************

 DFT| Spin unrestricted (spin-polarized) Kohn-Sham calculation               UKS
 DFT| Multiplicity                                                             1
 DFT| Number of spin states                                                    2
 DFT| Charge                                                                   0
 DFT| Self-interaction correction (SIC)                                       NO
 DFT| Cutoffs: density                                              1.000000E-10
 DFT|          gradient                                             1.000000E-10
 DFT|          tau                                                  1.000000E-10
 DFT|          cutoff_smoothing_range                               0.000000E+00
 DFT| XC density smoothing                                                  NONE
 DFT| XC derivatives                                              SPLINE2_SMOOTH

 FUNCTIONAL| PBE:
 FUNCTIONAL| J.P.Perdew, K.Burke, M.Ernzerhof, Phys. Rev. Letter, vol. 77, n 18,
 FUNCTIONAL|  pp. 3865-3868, (1996){spin polarized}                             

 vdW POTENTIAL|                                                   Pair Potential
 vdW POTENTIAL|          DFT-D3 (Version 3.1)
 vdW POTENTIAL|          Potential Form: S. Grimme et al, JCP 132: 154104 (2010)
 vdW POTENTIAL|          Zero Damping
 vdW POTENTIAL|          Cutoff Radius [Bohr]:                             20.00
 vdW POTENTIAL|          s6 Scaling Factor:                               1.0000
 vdW POTENTIAL|          sr6 Scaling Factor:                              1.2170
 vdW POTENTIAL|          s8 Scaling Factor:                               0.7220
 vdW POTENTIAL|          Cutoff for CN calculation:                   0.1000E-05

 QS| Method:                                                                 GPW
 QS| Density plane wave grid type                        NON-SPHERICAL FULLSPACE
 QS| Number of grid levels:                                                    4
 QS| Density cutoff [a.u.]:                                                250.0
 QS| Multi grid cutoff [a.u.]: 1) grid level                               250.0
 QS|                           2) grid level                                83.3
 QS|                           3) grid level                                27.8
 QS|                           4) grid level                                 9.3
 QS| Grid level progression factor:                                          3.0
 QS| Relative density cutoff [a.u.]:                                        20.0
 QS| Interaction thresholds: eps_pgf_orb:                                1.0E-06
 QS|                         eps_filter_matrix:                          0.0E+00
 QS|                         eps_core_charge:                            1.0E-14
 QS|                         eps_rho_gspace:                             1.0E-12
 QS|                         eps_rho_rspace:                             1.0E-12
 QS|                         eps_gvg_rspace:                             1.0E-06
 QS|                         eps_ppl:                                    1.0E-02
 QS|                         eps_ppnl:                                   1.0E-08


 ATOMIC KIND INFORMATION

  1. Atomic kind: C                                     Number of atoms:      42

     Orbital Basis Set                                        DZVP-MOLOPT-SR-GTH

       Number of orbital shell sets:                                           1
       Number of orbital shells:                                               5
       Number of primitive Cartesian functions:                                5
       Number of Cartesian basis functions:                                   14
       Number of spherical basis functions:                                   13
       Norm type:                                                              2

       Normalised Cartesian orbitals:

                        Set   Shell   Orbital            Exponent    Coefficient

                          1       1    2s                5.605331       0.322515
                                                         2.113016       0.213043
                                                         0.769911      -0.209686
                                                         0.348157      -0.219794
                                                         0.128212      -0.022789

                          1       2    3s                5.605331       0.552234
                                                         2.113016       0.082072
                                                         0.769911       0.007843
                                                         0.348157       0.136893
                                                         0.128212       0.074283

                          1       3    3px               5.605331      -0.703879
                                                         2.113016      -0.642521
                                                         0.769911      -0.374851
                                                         0.348157      -0.139743
                                                         0.128212      -0.027849
                          1       3    3py               5.605331      -0.703879
                                                         2.113016      -0.642521
                                                         0.769911      -0.374851
                                                         0.348157      -0.139743
                                                         0.128212      -0.027849
                          1       3    3pz               5.605331      -0.703879
                                                         2.113016      -0.642521
                                                         0.769911      -0.374851
                                                         0.348157      -0.139743
                                                         0.128212      -0.027849

                          1       4    4px               5.605331      -0.480376
                                                         2.113016      -0.552894
                                                         0.769911      -0.316145
                                                         0.348157       0.210505
                                                         0.128212       0.076095
                          1       4    4py               5.605331      -0.480376
                                                         2.113016      -0.552894
                                                         0.769911      -0.316145
                                                         0.348157       0.210505
                                                         0.128212       0.076095
                          1       4    4pz               5.605331      -0.480376
                                                         2.113016      -0.552894
                                                         0.769911      -0.316145
                                                         0.348157       0.210505
                                                         0.128212       0.076095

                          1       5    4dx2              5.605331       0.640026
                                                         2.113016       0.274300
                                                         0.769911       0.446711
                                                         0.348157       0.028674
                                                         0.128212       0.029790
                          1       5    4dxy              5.605331       1.108557
                                                         2.113016       0.475102
                                                         0.769911       0.773726
                                                         0.348157       0.049666
                                                         0.128212       0.051599
                          1       5    4dxz              5.605331       1.108557
                                                         2.113016       0.475102
                                                         0.769911       0.773726
                                                         0.348157       0.049666
                                                         0.128212       0.051599
                          1       5    4dy2              5.605331       0.640026
                                                         2.113016       0.274300
                                                         0.769911       0.446711
                                                         0.348157       0.028674
                                                         0.128212       0.029790
                          1       5    4dyz              5.605331       1.108557
                                                         2.113016       0.475102
                                                         0.769911       0.773726
                                                         0.348157       0.049666
                                                         0.128212       0.051599
                          1       5    4dz2              5.605331       0.640026
                                                         2.113016       0.274300
                                                         0.769911       0.446711
                                                         0.348157       0.028674
                                                         0.128212       0.029790

       Atomic covalent radius [Angstrom]:                                  0.770

       Atomic van der Waals radius [Angstrom]:                             1.700

     GTH Potential information for                                    GTH-PBE-q4

       Description:                       Goedecker-Teter-Hutter pseudopotential
                                           Goedecker et al., PRB 54, 1703 (1996)
                                          Hartwigsen et al., PRB 58, 3641 (1998)
                                                      Krack, TCA 114, 145 (2005)

       Gaussian exponent of the core charge distribution:               4.364419
       Electronic configuration (s p d ...):                               2   2

       Parameters of the local part of the GTH pseudopotential:

                          rloc        C1          C2          C3          C4
                        0.338471   -8.803674    1.339211

       Parameters of the non-local part of the GTH pseudopotential:

                   l      r(l)      h(i,j,l)

                   0    0.302576    9.622487
                   1    0.291507

  2. Atomic kind: Na_ghost                              Number of atoms:       1

     Orbital Basis Set                                        DZVP-MOLOPT-SR-GTH

       Number of orbital shell sets:                                           1
       Number of orbital shells:                                               5
       Number of primitive Cartesian functions:                                7
       Number of Cartesian basis functions:                                    9
       Number of spherical basis functions:                                    9
       Norm type:                                                              2

       Normalised Cartesian orbitals:

                        Set   Shell   Orbital            Exponent    Coefficient

                          1       1    2s               23.518801       0.288931
                                                        11.135656       0.787174
                                                         4.647814      -0.190850
                                                         1.866708      -0.573823
                                                         0.734684      -0.276866
                                                         0.275673      -0.024211
                                                         0.049895      -0.000019

                          1       2    3s               23.518801       0.039212
                                                        11.135656       0.138585
                                                         4.647814      -0.048916
                                                         1.866708      -0.102378
                                                         0.734684      -0.139633
                                                         0.275673       0.012767
                                                         0.049895       0.077569

                          1       3    4s               23.518801       0.303698
                                                        11.135656      -0.548845
                                                         4.647814       0.534441
                                                         1.866708      -0.220920
                                                         0.734684       0.980584
                                                         0.275673      -0.653367
                                                         0.049895       0.063703

                          1       4    3px              23.518801      -2.919466
                                                        11.135656      -2.855941
                                                         4.647814      -2.579491
                                                         1.866708      -1.208264
                                                         0.734684      -0.321406
                                                         0.275673      -0.035032
                                                         0.049895      -0.000067
                          1       4    3py              23.518801      -2.919466
                                                        11.135656      -2.855941
                                                         4.647814      -2.579491
                                                         1.866708      -1.208264
                                                         0.734684      -0.321406
                                                         0.275673      -0.035032
                                                         0.049895      -0.000067
                          1       4    3pz              23.518801      -2.919466
                                                        11.135656      -2.855941
                                                         4.647814      -2.579491
                                                         1.866708      -1.208264
                                                         0.734684      -0.321406
                                                         0.275673      -0.035032
                                                         0.049895      -0.000067

                          1       5    4px              23.518801      -0.381914
                                                        11.135656      -0.488169
                                                         4.647814      -0.407378
                                                         1.866708      -0.201739
                                                         0.734684      -0.078845
                                                         0.275673       0.043427
                                                         0.049895       0.031563
                          1       5    4py              23.518801      -0.381914
                                                        11.135656      -0.488169
                                                         4.647814      -0.407378
                                                         1.866708      -0.201739
                                                         0.734684      -0.078845
                                                         0.275673       0.043427
                                                         0.049895       0.031563
                          1       5    4pz              23.518801      -0.381914
                                                        11.135656      -0.488169
                                                         4.647814      -0.407378
                                                         1.866708      -0.201739
                                                         0.734684      -0.078845
                                                         0.275673       0.043427
                                                         0.049895       0.031563

     The atoms of this atomic kind are GHOST atoms!

       Atomic covalent radius [Angstrom]:                                  1.540

       Atomic van der Waals radius [Angstrom]:                             2.270


 MOLECULE KIND INFORMATION


 All atoms are their own molecule, skipping detailed information


 TOTAL NUMBERS AND MAXIMUM NUMBERS

  Total number of            - Atomic kinds:                                   2
                             - Atoms:                                         43
                             - Shell sets:                                    43
                             - Shells:                                       215
                             - Primitive Cartesian functions:                217
                             - Cartesian basis functions:                    597
                             - Spherical basis functions:                    555

  Maximum angular momentum of- Orbital basis functions:                        2
                             - Local part of the GTH pseudopotential:          2
                             - Non-local part of the GTH pseudopotential:      0


 MODULE QUICKSTEP: ATOMIC COORDINATES IN ANGSTROM

   Atom Kind Element         X             Y             Z       Z(eff)     Mass
      1    1 C     6      0.694560     -1.175500     -0.001080   4.0000  12.0107
      2    1 C     6      0.000000      0.000000      0.000000   4.0000  12.0107
      3    1 C     6      0.604390      1.277760     -0.012280   4.0000  12.0107
      4    1 C     6      0.054290      2.530320     -0.021840   4.0000  12.0107
      5    1 C     6      0.589830      3.791460     -0.069530   4.0000  12.0107
      6    1 C     6     -0.026340      5.060010     -0.096760   4.0000  12.0107
      7    1 C     6      0.662760      6.240110     -0.159280   4.0000  12.0107
      8    1 C     6      2.069120      6.230210     -0.188350   4.0000  12.0107
      9    1 C     6      2.092310      3.785810     -0.095990   4.0000  12.0107
     10    1 C     6      2.802150      2.544270     -0.066540   4.0000  12.0107
     11    1 C     6      2.107440      1.297480     -0.026040   4.0000  12.0107
     12    1 C     6      2.818380      0.054480     -0.009740   4.0000  12.0107
     13    1 C     6      2.103880     -1.155070      0.000460   4.0000  12.0107
     14    1 C     6      2.795710      5.028190     -0.156950   4.0000  12.0107
     15    1 C     6      4.975940      6.214880     -0.241670   4.0000  12.0107
     16    1 C     6      4.265470      5.029770     -0.176540   4.0000  12.0107
     17    1 C     6      4.983090      3.776320     -0.123790   4.0000  12.0107
     18    1 C     6      4.264140      2.557840     -0.078590   4.0000  12.0107
     19    1 C     6      4.987280      1.307110     -0.043640   4.0000  12.0107
     20    1 C     6      4.278880      0.073720     -0.012410   4.0000  12.0107
     21    1 C     6      5.021760     -1.133230      0.008730   4.0000  12.0107
     22    1 C     6      6.396430     -1.140260      0.009300   4.0000  12.0107
     23    1 C     6      7.139000      0.066510     -0.008990   4.0000  12.0107
     24    1 C     6      6.430500      1.307660     -0.042700   4.0000  12.0107
     25    1 C     6      7.158640      2.552530     -0.076820   4.0000  12.0107
     26    1 C     6      6.437040      3.801090     -0.124130   4.0000  12.0107
     27    1 C     6      7.155680      5.034710     -0.165680   4.0000  12.0107
     28    1 C     6      6.399080      6.318960     -0.225640   4.0000  12.0107
     29    1 C     6      9.344700      6.239600     -0.159560   4.0000  12.0107
     30    1 C     6      8.602930      5.025720     -0.143640   4.0000  12.0107
     31    1 C     6      9.309620      3.780570     -0.092940   4.0000  12.0107
     32    1 C     6      8.602260      2.538820     -0.067180   4.0000  12.0107
     33    1 C     6      9.302400      1.282720     -0.031490   4.0000  12.0107
     34    1 C     6      8.592060      0.049580     -0.005400   4.0000  12.0107
     35    1 C     6      9.313020     -1.170640      0.014390   4.0000  12.0107
     36    1 C     6     10.712380     -1.182590      0.015260   4.0000  12.0107
     37    1 C     6     11.417330      0.000000      0.000000   4.0000  12.0107
     38    1 C     6     10.792700      1.267400     -0.026680   4.0000  12.0107
     39    1 C     6     11.360950      2.522490     -0.046120   4.0000  12.0107
     40    1 C     6     10.810620      3.781110     -0.069480   4.0000  12.0107
     41    1 C     6     11.421210      5.049880     -0.079770   4.0000  12.0107
     42    1 C     6     10.745480      6.241010     -0.117860   4.0000  12.0107
     43    2 Na   11      2.086990      6.319710      2.499280   0.0000  22.9898



 SCF PARAMETERS         Density guess:                                    ATOMIC
                        --------------------------------------------------------
                        max_scf:                                             100
                        max_scf_history:                                       0
                        max_diis:                                              4
                        --------------------------------------------------------
                        eps_scf:                                        3.00E-07
                        eps_scf_history:                                0.00E+00
                        eps_diis:                                       1.00E-01
                        eps_eigval:                                     1.00E-05
                        --------------------------------------------------------
                        level_shift [a.u.]:                             0.000000
                        added MOs                                       100  100
                        --------------------------------------------------------
                        Mixing method:                            BROYDEN_MIXING
                                                charge density mixing in g-space
                        --------------------------------------------------------
                        Smear method:                                FERMI_DIRAC
                        Electronic temperature [K]:                        300.0
                        Electronic temperature [a.u.]:                  9.50E-04
                        Accuracy threshold:                             1.00E-10
                        --------------------------------------------------------
                        Outer loop SCF in use 
                        No variables optimised in outer loop
                        eps_scf                                         1.00E-06
                        max_scf                                              150
                        DIIS optimization
                        DIIS buffer length                                     3
                        step_size                                       5.00E-01

 PW_GRID| Information for grid number                                          5
 PW_GRID| Grid distributed over                                    16 processors
 PW_GRID| Real space group dimensions                                    16    1
 PW_GRID| the grid is blocked:                                                NO
 PW_GRID| Cutoff [a.u.]                                                    250.0
 PW_GRID| spherical cutoff:                                                   NO
 PW_GRID|   Bounds   1            -90      89                Points:         180
 PW_GRID|   Bounds   2           -202     202                Points:         405
 PW_GRID|   Bounds   3           -270     269                Points:         540
 PW_GRID| Volume element (a.u.^3)  0.2642E-02     Volume (a.u.^3)    104010.7313
 PW_GRID| Grid span                                                    FULLSPACE
 PW_GRID|   Distribution                         Average         Max         Min
 PW_GRID|   G-Vectors                          2460375.0     2460420     2460240
 PW_GRID|   G-Rays                               13668.8       13669       13668
 PW_GRID|   Real Space Points                  2460375.0     2624400     2405700

[...]
    35 Broy./Diag. 0.10E+00   13.2     0.03391191      -284.7758152532  8.02E-02
    36 Broy./Diag. 0.10E+00   13.2     0.13800032      -284.8202258935 -4.44E-02
    37 Broy./Diag. 0.10E+00   13.2     0.02537878      -284.9626783764 -1.42E-01
    38 Broy./Diag. 0.10E+00   13.2     0.00971769      -284.9273744293  3.53E-02
    39 Broy./Diag. 0.10E+00   13.2     0.03276258      -284.9162461894  1.11E-02
    40 Broy./Diag. 0.10E+00   13.3     0.04427363      -284.8851433582  3.11E-02
    41 Broy./Diag. 0.10E+00   13.2     0.02490211      -284.8555470542  2.96E-02
    42 Broy./Diag. 0.10E+00   13.2     0.00548101      -284.8250743880  3.05E-02
    43 Broy./Diag. 0.10E+00   13.2     0.02579858      -284.8224377738  2.64E-03
    44 Broy./Diag. 0.10E+00   13.2     0.01036110      -284.7952753854  2.72E-02
    45 Broy./Diag. 0.10E+00   13.2     0.01434852      -284.8142954795 -1.90E-02
    46 Broy./Diag. 0.10E+00   13.2     0.02947635      -284.8056896498  8.61E-03
    47 Broy./Diag. 0.10E+00   13.2     0.03254011      -284.8441376355 -3.84E-02
    48 Broy./Diag. 0.10E+00   13.3     0.03380680      -284.7910976739  5.30E-02
    49 Broy./Diag. 0.10E+00   13.2     0.02594480      -284.8076878783 -1.66E-02
    50 Broy./Diag. 0.10E+00   13.2     0.02098602      -284.8259559115 -1.83E-02
    51 Broy./Diag. 0.10E+00   13.2     0.02335182      -284.8550150786 -2.91E-02
    52 Broy./Diag. 0.10E+00   13.2     0.01315457      -284.8201580701  3.49E-02
    53 Broy./Diag. 0.10E+00   13.2     0.00799734      -284.8396836493 -1.95E-02
    54 Broy./Diag. 0.10E+00   13.2     0.05606996      -284.8319900608  7.69E-03
    55 Broy./Diag. 0.10E+00   13.2     0.01116316      -284.8751463425 -4.32E-02
    56 Broy./Diag. 0.10E+00   13.2     0.08212505      -284.8591747046  1.60E-02
    57 Broy./Diag. 0.10E+00   13.2     0.00718087      -284.9617750887 -1.03E-01
    58 Broy./Diag. 0.10E+00   13.2     0.01470085      -284.9672024437 -5.43E-03
    59 Broy./Diag. 0.10E+00   13.2     0.01534156      -284.9766006340 -9.40E-03
    60 Broy./Diag. 0.10E+00   13.2     0.02167821      -284.9533350219  2.33E-02
    61 Broy./Diag. 0.10E+00   13.2     0.06843790      -284.9867282807 -3.34E-02
    62 Broy./Diag. 0.10E+00   13.2     0.01046199      -284.8902503505  9.65E-02
    63 Broy./Diag. 0.10E+00   13.2     0.07537101      -284.8870353507  3.21E-03
    64 Broy./Diag. 0.10E+00   13.2     0.01231655      -284.8474752780  3.96E-02
    65 Broy./Diag. 0.10E+00   13.2     0.03440030      -284.8290799868  1.84E-02
    66 Broy./Diag. 0.10E+00   13.2     0.03970216      -284.8275521656  1.53E-03
    67 Broy./Diag. 0.10E+00   13.2     0.01823696      -284.7439019328  8.37E-02
    68 Broy./Diag. 0.10E+00   13.2     0.00810793      -284.7592150032 -1.53E-02
    69 Broy./Diag. 0.10E+00   13.2     0.03340114      -284.7600773539 -8.62E-04
    70 Broy./Diag. 0.10E+00   13.2     0.02611588      -284.7406509312  1.94E-02
    71 Broy./Diag. 0.10E+00   13.2     0.04128234      -284.7691775643 -2.85E-02
    72 Broy./Diag. 0.10E+00   13.2     0.01674449      -284.7940710414 -2.49E-02
    73 Broy./Diag. 0.10E+00   13.3     0.03221973      -284.7851189415  8.95E-03
    74 Broy./Diag. 0.10E+00   13.3     0.01547511      -284.7295736930  5.55E-02
    75 Broy./Diag. 0.10E+00   13.3     0.06462743      -284.7373892761 -7.82E-03
    76 Broy./Diag. 0.10E+00   13.3     0.05043204      -284.8115775618 -7.42E-02
    77 Broy./Diag. 0.10E+00   13.2     0.09023727      -284.7568595372  5.47E-02
    78 Broy./Diag. 0.10E+00   13.2     0.04339844      -284.8808338755 -1.24E-01
    79 Broy./Diag. 0.10E+00   13.2     0.03040970      -284.8287511274  5.21E-02
    80 Broy./Diag. 0.10E+00   13.2     0.04023069      -284.8360949516 -7.34E-03
    81 Broy./Diag. 0.10E+00   13.2     0.03506236      -284.7672437471  6.89E-02
    82 Broy./Diag. 0.10E+00   13.2     0.06632090      -284.7404781902  2.68E-02
    83 Broy./Diag. 0.10E+00   13.2     0.03642210      -284.8398056325 -9.93E-02
    84 Broy./Diag. 0.10E+00   13.2     0.05850053      -284.8449550873 -5.15E-03
    85 Broy./Diag. 0.10E+00   13.2     0.03046366      -284.8466159099 -1.66E-03
    86 Broy./Diag. 0.10E+00   13.2     0.01688713      -284.8194860556  2.71E-02
    87 Broy./Diag. 0.10E+00   13.2     0.02538757      -284.8436899003 -2.42E-02
    88 Broy./Diag. 0.10E+00   13.3     0.02730583      -284.8682965901 -2.46E-02
    89 Broy./Diag. 0.10E+00   13.3     0.15476491      -284.7836464184  8.47E-02
    90 Broy./Diag. 0.10E+00   13.3     0.01422111      -284.6822607701  1.01E-01
    91 Broy./Diag. 0.10E+00   13.2     0.01926365      -284.6861164005 -3.86E-03
    92 Broy./Diag. 0.10E+00   13.2     0.04072808      -284.6655687846  2.05E-02
    93 Broy./Diag. 0.10E+00   13.2     0.00747006      -284.6220955831  4.35E-02
    94 Broy./Diag. 0.10E+00   13.2     0.02099257      -284.6231885685 -1.09E-03
    95 Broy./Diag. 0.10E+00   13.2     0.01884269      -284.6504903059 -2.73E-02
    96 Broy./Diag. 0.10E+00   13.2     0.07346237      -284.6622522470 -1.18E-02
    97 Broy./Diag. 0.10E+00   13.2     0.06278243      -284.7498957145 -8.76E-02
    98 Broy./Diag. 0.10E+00   13.2     0.02073297      -284.8294639124 -7.96E-02
    99 Broy./Diag. 0.10E+00   13.2     0.09194567      -284.8488097350 -1.93E-02
   100 Broy./Diag. 0.10E+00   13.3     0.05528113      -284.8060034543  4.28E-02

  Leaving inner SCF loop after reaching   100 steps.


  Electronic density on regular grids:       -177.0000012905       -0.0000012905
  Core density on regular grids:              176.9999999999       -0.0000000001
  Total charge density on r-space grids:       -0.0000012907
  Total charge density g-space grids:          -0.0000012907

  Overlap energy of the core charge distribution:               0.00000836868231
  Self energy of the core charge distribution:               -656.67682311856515
  Core Hamiltonian energy:                                    203.70450796845506
  Hartree energy:                                             247.88896802870397
  Exchange-correlation energy:                                -79.67984494508443
  Dispersion energy:                                           -0.04068283049687
  Electronic entropic energy:                                  -0.00209119763132
  Fermi energy:                                                -0.14566203628041

  Total energy:                                              -284.80600345428428

  outer SCF iter =  127 RMS gradient =   0.55E-01 energy =       -284.8060034543
     1 Broy./Diag. 0.10E+00   19.8     0.29611284      -284.8029730923  3.03E-03
     2 Broy./Diag. 0.10E+00   13.2     0.30016459      -285.3627489225 -5.60E-01
     3 Broy./Diag. 0.10E+00   13.3     0.03232641      -284.7997378333  5.63E-01
     4 Broy./Diag. 0.10E+00   13.3     0.05200458      -284.7637242293  3.60E-02
     5 Broy./Diag. 0.10E+00   13.2     0.11299448      -284.7623175403  1.41E-03
     6 Broy./Diag. 0.10E+00   13.2     0.06365385      -284.8105318997 -4.82E-02
     7 Broy./Diag. 0.10E+00   13.2     0.10523536      -284.7849557964  2.56E-02
     8 Broy./Diag. 0.10E+00   13.2     0.02213910      -284.8373672769 -5.24E-02
     9 Broy./Diag. 0.10E+00   13.2     0.00880882      -284.8134594574  2.39E-02
    10 Broy./Diag. 0.10E+00   13.2     0.07140076      -284.8169599875 -3.50E-03
    11 Broy./Diag. 0.10E+00   13.3     0.10595755      -284.7565472392  6.04E-02
    12 Broy./Diag. 0.10E+00   13.2     0.03511853      -284.8814999341 -1.25E-01
    13 Broy./Diag. 0.10E+00   13.2     0.05983279      -284.7549524189  1.27E-01
    14 Broy./Diag. 0.10E+00   13.2     0.04612962      -284.9170022484 -1.62E-01
    15 Broy./Diag. 0.10E+00   13.2     0.06378526      -284.8426706115  7.43E-02
    16 Broy./Diag. 0.10E+00   13.3     0.01607384      -284.7837480930  5.89E-02
    17 Broy./Diag. 0.10E+00   13.2     0.02160416      -284.7977077318 -1.40E-02
    18 Broy./Diag. 0.10E+00   13.2     0.05237401      -284.8840881986 -8.64E-02
    19 Broy./Diag. 0.10E+00   13.3     0.01268307      -284.9304934810 -4.64E-02
    20 Broy./Diag. 0.10E+00   13.2     0.01756594      -284.9217231736  8.77E-03
    21 Broy./Diag. 0.10E+00   13.3     0.01339940      -284.9379508790 -1.62E-02
    22 Broy./Diag. 0.10E+00   13.3     0.01962356      -284.9043085402  3.36E-02
    23 Broy./Diag. 0.10E+00   13.2     0.04771716      -284.9108050454 -6.50E-03
    24 Broy./Diag. 0.10E+00   13.3     0.01578821      -284.9514025100 -4.06E-02
    25 Broy./Diag. 0.10E+00   13.3     0.08791039      -284.9501163655  1.29E-03
    26 Broy./Diag. 0.10E+00   13.3     0.03279352      -284.8631870110  8.69E-02
    27 Broy./Diag. 0.10E+00   13.2     0.00920561      -284.8406842896  2.25E-02
    28 Broy./Diag. 0.10E+00   13.3     0.13914722      -284.8356289727  5.06E-03
    29 Broy./Diag. 0.10E+00   13.2     0.12125683      -284.9706953264 -1.35E-01
    30 Broy./Diag. 0.10E+00   13.2     0.08369644      -284.8961883661  7.45E-02
    31 Broy./Diag. 0.10E+00   13.3     0.01157288      -284.9570163840 -6.08E-02
    32 Broy./Diag. 0.10E+00   13.2     0.02638106      -284.9784056221 -2.14E-02
    33 Broy./Diag. 0.10E+00   13.2     0.04443870      -284.9308430822  4.76E-02
    34 Broy./Diag. 0.10E+00   13.2     0.00921743      -285.0226833492 -9.18E-02
    35 Broy./Diag. 0.10E+00   13.3     0.02625821      -285.0153347123  7.35E-03
    36 Broy./Diag. 0.10E+00   13.3     0.11311410      -285.0956116329 -8.03E-02
    37 Broy./Diag. 0.10E+00   13.2     0.01562477      -284.8910012204  2.05E-01
    38 Broy./Diag. 0.10E+00   13.3     0.02875198      -284.8422701202  4.87E-02
    39 Broy./Diag. 0.10E+00   13.3     0.00954444      -284.8563109202 -1.40E-02
    40 Broy./Diag. 0.10E+00   13.2     0.01413729      -284.8343019119  2.20E-02
    41 Broy./Diag. 0.10E+00   13.2     0.04560470      -284.8660778107 -3.18E-02
    42 Broy./Diag. 0.10E+00   13.2     0.04387992      -284.8342182527  3.19E-02
    43 Broy./Diag. 0.10E+00   13.2     0.00651009      -284.7844778845  4.97E-02
    44 Broy./Diag. 0.10E+00   13.2     0.02076619      -284.7861310535 -1.65E-03
    45 Broy./Diag. 0.10E+00   13.2     0.00895093      -284.7735443390  1.26E-02
    46 Broy./Diag. 0.10E+00   13.2     0.00641690      -284.7763839326 -2.84E-03
    47 Broy./Diag. 0.10E+00   13.2     0.01425045      -284.7898590596 -1.35E-02
    48 Broy./Diag. 0.10E+00   13.2     0.04305528      -284.7697425268  2.01E-02
    49 Broy./Diag. 0.10E+00   13.2     0.04749619      -284.6727179510  9.70E-02
    50 Broy./Diag. 0.10E+00   13.2     0.02525280      -284.6516517233  2.11E-02
    51 Broy./Diag. 0.10E+00   13.2     0.03383255      -284.6993181159 -4.77E-02
    52 Broy./Diag. 0.10E+00   13.2     0.06813599      -284.6264311908  7.29E-02
    53 Broy./Diag. 0.10E+00   13.2     0.02676624      -284.7705401329 -1.44E-01
    54 Broy./Diag. 0.10E+00   13.2     0.03963703      -284.7281692384  4.24E-02
    55 Broy./Diag. 0.10E+00   13.2     0.02428223      -284.7315183523 -3.35E-03
    56 Broy./Diag. 0.10E+00   13.2     0.03242519      -284.7674245628 -3.59E-02
    57 Broy./Diag. 0.10E+00   13.2     0.03517113      -284.7201385416  4.73E-02
    58 Broy./Diag. 0.10E+00   13.2     0.09157273      -284.7057102313  1.44E-02
    59 Broy./Diag. 0.10E+00   13.2     0.07253643      -284.7729643553 -6.73E-02
    60 Broy./Diag. 0.10E+00   13.2     0.05626238      -284.6726125252  1.00E-01
    61 Broy./Diag. 0.10E+00   13.2     0.07819839      -284.7339507761 -6.13E-02
    62 Broy./Diag. 0.10E+00   13.2     0.01166459      -284.7957627993 -6.18E-02
    63 Broy./Diag. 0.10E+00   13.2     0.02262269      -284.7921921996  3.57E-03
    64 Broy./Diag. 0.10E+00   13.2     0.05469251      -284.7761338008  1.61E-02
    65 Broy./Diag. 0.10E+00   13.2     0.01878350      -284.8213360374 -4.52E-02
    66 Broy./Diag. 0.10E+00   13.3     0.02267149      -284.7970646612  2.43E-02
    67 Broy./Diag. 0.10E+00   13.3     0.02983296      -284.7918957058  5.17E-03
    68 Broy./Diag. 0.10E+00   13.3     0.01069125      -284.7413959790  5.05E-02
    69 Broy./Diag. 0.10E+00   13.2     0.06065598      -284.7466468108 -5.25E-03
    70 Broy./Diag. 0.10E+00   13.2     0.06185871      -284.7954171120 -4.88E-02
    71 Broy./Diag. 0.10E+00   13.2     0.03798291      -284.8045426277 -9.13E-03
    72 Broy./Diag. 0.10E+00   13.2     0.01906382      -284.7547085158  4.98E-02
    73 Broy./Diag. 0.10E+00   13.3     0.09604702      -284.8083052170 -5.36E-02
    74 Broy./Diag. 0.10E+00   13.2     0.03501048      -284.8307855501 -2.25E-02
    75 Broy./Diag. 0.10E+00   13.2     0.01713391      -284.8918888504 -6.11E-02
    76 Broy./Diag. 0.10E+00   13.2     0.04198368      -284.8635263914  2.84E-02
    77 Broy./Diag. 0.10E+00   13.2     0.03050727      -284.8233543370  4.02E-02
    78 Broy./Diag. 0.10E+00   13.2     0.02009319      -284.8012601770  2.21E-02
    79 Broy./Diag. 0.10E+00   13.2     0.01814921      -284.8323075089 -3.10E-02
    80 Broy./Diag. 0.10E+00   13.2     0.02705610      -284.7913683675  4.09E-02
    81 Broy./Diag. 0.10E+00   13.2     0.06140270      -284.8712384626 -7.99E-02
    82 Broy./Diag. 0.10E+00   13.2     0.07648162      -284.8077733541  6.35E-02
    83 Broy./Diag. 0.10E+00   13.2     0.06495865      -284.8741071471 -6.63E-02
    84 Broy./Diag. 0.10E+00   13.2     0.03764942      -284.9369991403 -6.29E-02
    85 Broy./Diag. 0.10E+00   13.2     0.00725527      -284.9818678734 -4.49E-02
    86 Broy./Diag. 0.10E+00   13.2     0.04238512      -284.9808533690  1.01E-03
    87 Broy./Diag. 0.10E+00   13.3     0.05357049      -285.0102705416 -2.94E-02
    88 Broy./Diag. 0.10E+00   13.2     0.08508458      -284.9524412066  5.78E-02
    89 Broy./Diag. 0.10E+00   13.2     0.01999276      -284.8531112110  9.93E-02
    90 Broy./Diag. 0.10E+00   13.2     0.01212545      -284.8628175765 -9.71E-03
    91 Broy./Diag. 0.10E+00   13.2     0.02264856      -284.8556403662  7.18E-03
    92 Broy./Diag. 0.10E+00   13.2     0.03940315      -284.8944615027 -3.88E-02
    93 Broy./Diag. 0.10E+00   13.2     0.01142958      -284.9355839112 -4.11E-02
    94 Broy./Diag. 0.10E+00   13.3     0.01952348      -284.9582586393 -2.27E-02
    95 Broy./Diag. 0.10E+00   13.2     0.03445336      -284.9379343067  2.03E-02
    96 Broy./Diag. 0.10E+00   13.2     0.04972741      -284.9936023171 -5.57E-02
    97 Broy./Diag. 0.10E+00   13.2     0.03330184      -284.9276939709  6.59E-02
    98 Broy./Diag. 0.10E+00   13.2     0.01098089      -284.8392322058  8.85E-02
    99 Broy./Diag. 0.10E+00   13.2     0.06850324      -284.8564179977 -1.72E-02
   100 Broy./Diag. 0.10E+00   13.2     0.02132769      -284.9497179223 -9.33E-02

  Leaving inner SCF loop after reaching   100 steps.


  Electronic density on regular grids:       -177.0000012883       -0.0000012883
  Core density on regular grids:              176.9999999999       -0.0000000001
  Total charge density on r-space grids:       -0.0000012884
  Total charge density g-space grids:          -0.0000012884

  Overlap energy of the core charge distribution:               0.00000836868231
  Self energy of the core charge distribution:               -656.67682311856515
  Core Hamiltonian energy:                                    203.60862325328577
  Hartree energy:                                             247.87870239811502
  Exchange-correlation energy:                                -79.71828572745174
  Dispersion energy:                                           -0.04068283049687
  Electronic entropic energy:                                  -0.00123159703327
  Fermi energy:                                                -0.14344008344870

  Total energy:                                              -284.94971792232815

  outer SCF iter =  128 RMS gradient =   0.21E-01 energy =       -284.9497179223
     1 Broy./Diag. 0.10E+00   19.7     0.42539098      -284.7588140902  1.91E-01
     2 Broy./Diag. 0.10E+00   13.2     0.40899644      -285.2741313302 -5.15E-01
     3 Broy./Diag. 0.10E+00   13.2     0.03211729      -284.9309303749  3.43E-01
     4 Broy./Diag. 0.10E+00   13.2     0.05006569      -284.9023108344  2.86E-02
     5 Broy./Diag. 0.10E+00   13.3     0.07107196      -285.0541317899 -1.52E-01
     6 Broy./Diag. 0.10E+00   13.2     0.08217668      -284.9934200758  6.07E-02
     7 Broy./Diag. 0.10E+00   13.2     0.08037755      -284.9067710599  8.66E-02
     8 Broy./Diag. 0.10E+00   13.3     0.01640398      -284.8150093512  9.18E-02
     9 Broy./Diag. 0.10E+00   13.2     0.02361586      -284.7916088940  2.34E-02
    10 Broy./Diag. 0.10E+00   13.2     0.02741117      -284.7505545669  4.11E-02
    11 Broy./Diag. 0.10E+00   13.2     0.03054905      -284.7397797722  1.08E-02
    12 Broy./Diag. 0.10E+00   13.2     0.05239700      -284.7482041344 -8.42E-03
    13 Broy./Diag. 0.10E+00   13.2     0.02903432      -284.6945396275  5.37E-02
    14 Broy./Diag. 0.10E+00   13.2     0.02915489      -284.7606838758 -6.61E-02
    15 Broy./Diag. 0.10E+00   13.2     0.04567826      -284.6621735312  9.85E-02
    16 Broy./Diag. 0.10E+00   13.2     0.02516051      -284.7189744933 -5.68E-02
    17 Broy./Diag. 0.10E+00   13.2     0.04435999      -284.7125319320  6.44E-03
    18 Broy./Diag. 0.10E+00   13.2     0.03265456      -284.7681467746 -5.56E-02
    19 Broy./Diag. 0.10E+00   13.2     0.06686456      -284.8340317299 -6.59E-02
    20 Broy./Diag. 0.10E+00   13.2     0.03239232      -284.7667155294  6.73E-02
    21 Broy./Diag. 0.10E+00   13.2     0.05099177      -284.8039733588 -3.73E-02
    22 Broy./Diag. 0.10E+00   13.2     0.04370774      -284.8737666257 -6.98E-02
    23 Broy./Diag. 0.10E+00   13.2     0.01654626      -284.8184490143  5.53E-02
    24 Broy./Diag. 0.10E+00   13.2     0.01558051      -284.8235174033 -5.07E-03
    25 Broy./Diag. 0.10E+00   13.2     0.00152815      -284.8051976443  1.83E-02
    26 Broy./Diag. 0.10E+00   13.2     0.02691822      -284.8015178912  3.68E-03
    27 Broy./Diag. 0.10E+00   13.2     0.01259805      -284.8411956054 -3.97E-02
    28 Broy./Diag. 0.10E+00   13.2     0.01904400      -284.8375707971  3.62E-03
    29 Broy./Diag. 0.10E+00   13.2     0.02699331      -284.8614628162 -2.39E-02
    30 Broy./Diag. 0.10E+00   13.2     0.04595636      -284.8187891402  4.27E-02
    31 Broy./Diag. 0.10E+00   13.2     0.02792002      -284.7842993036  3.45E-02
    32 Broy./Diag. 0.10E+00   13.2     0.05427348      -284.7768573292  7.44E-03
    33 Broy./Diag. 0.10E+00   13.2     0.01896460      -284.8099303306 -3.31E-02
    34 Broy./Diag. 0.10E+00   13.2     0.01894529      -284.8081169302  1.81E-03
    35 Broy./Diag. 0.10E+00   13.2     0.02439136      -284.8599385340 -5.18E-02
    36 Broy./Diag. 0.10E+00   13.2     0.05176900      -284.8419081453  1.80E-02
    37 Broy./Diag. 0.10E+00   13.2     0.00435833      -284.7804736572  6.14E-02
    38 Broy./Diag. 0.10E+00   13.2     0.00924046      -284.7813433148 -8.70E-04
    39 Broy./Diag. 0.10E+00   13.2     0.01773441      -284.7625704418  1.88E-02
    40 Broy./Diag. 0.10E+00   13.2     0.02715132      -284.7650412492 -2.47E-03
    41 Broy./Diag. 0.10E+00   13.2     0.02102384      -284.8151567539 -5.01E-02
    42 Broy./Diag. 0.10E+00   13.2     0.02587465      -284.8278282972 -1.27E-02
    43 Broy./Diag. 0.10E+00   13.2     0.03789110      -284.8340683688 -6.24E-03
    44 Broy./Diag. 0.10E+00   13.2     0.09920463      -284.8757083811 -4.16E-02
    45 Broy./Diag. 0.10E+00   13.2     0.01049099      -284.7748089876  1.01E-01
    46 Broy./Diag. 0.10E+00   13.2     0.04109427      -284.7444834969  3.03E-02
    47 Broy./Diag. 0.10E+00   13.2     0.02985402      -284.8046872994 -6.02E-02
    48 Broy./Diag. 0.10E+00   13.2     0.13650706      -284.8001185961  4.57E-03
    49 Broy./Diag. 0.10E+00   13.2     0.00467617      -285.0083726727 -2.08E-01
    50 Broy./Diag. 0.10E+00   13.2     0.02151135      -285.0156255517 -7.25E-03
    51 Broy./Diag. 0.10E+00   13.2     0.01099996      -284.9895012581  2.61E-02
    52 Broy./Diag. 0.10E+00   13.2     0.07668158      -285.0246796542 -3.52E-02
