 DBCSR| CPU Multiplication driver                                           BLAS (U)
 DBCSR| Multrec recursion limit                                              512 (U)
 DBCSR| Multiplication stack size                                           1000 (D)
 DBCSR| Maximum elements for images                                    UNLIMITED (U)
 DBCSR| Multiplicative factor virtual images                                   1 (U)
 DBCSR| Use multiplication densification                                       T (D)
 DBCSR| Multiplication size stacks                                             3 (U)
 DBCSR| Use memory pool for CPU allocation                                     F (U)
 DBCSR| Number of 3D layers                                               SINGLE (U)
 DBCSR| Use MPI memory allocation                                              F (U)
 DBCSR| Use RMA algorithm                                                      F (U)
 DBCSR| Use Communication thread                                               T (U)
 DBCSR| Communication thread load                                             87 (D)
 DBCSR| MPI: My process id                                                     0
 DBCSR| MPI: Number of processes                                              16
 DBCSR| OMP: Current number of threads                                         1
 DBCSR| OMP: Max number of threads                                             1
 DBCSR| Split modifier for TAS multiplication algorithm                  1.0E+00 (U)


  **** **** ******  **  PROGRAM STARTED AT               2025-07-10 15:59:54.327
 ***** ** ***  *** **   PROGRAM STARTED ON                            sebnode123
 **    ****   ******    PROGRAM STARTED BY                                luehrs
 ***** **    ** ** **   PROGRAM PROCESS ID                                613851
  **** **  *******  **  PROGRAM STARTED IN /home/luehrs/PhD/Sodium_batteries/Sod
                                           ium-graphene-edge/Armchair_2/No_hydro
                                           gen

 CP2K| version string:                                       CP2K version 2023.1
 CP2K| source code revision number:                                  git:b888bd8
 CP2K| cp2kflags: omp libint fftw3 libxc elpa parallel scalapack spglib         
 CP2K| is freely available from                            https://www.cp2k.org/
 CP2K| Program compiled at                          Tue Jan 10 19:52:03 UTC 2023
 CP2K| Program compiled on                                            x86-ubc-01
 CP2K| Program compiled for                                Linux-x86_64-gfortran
 CP2K| Data directory path                                       /usr/share/cp2k
 CP2K| Input file name                                        input.armchair.inp

 GLOBAL| Force Environment number                                              1
 GLOBAL| Basis set file name                                      ./BASIS_MOLOPT
 GLOBAL| Potential file name                                    ./GTH_POTENTIALS
 GLOBAL| MM Potential file name                                     MM_POTENTIAL
 GLOBAL| Coordinate file name           ./graphene_armchair_no_hydrogen_PBE_rela
 GLOBAL| Method name                                                        CP2K
 GLOBAL| Project name                                 graphene_armchair_BSSE_PBE
 GLOBAL| Run type                                                           BSSE
 GLOBAL| FFT library                                                       FFTW3
 GLOBAL| Diagonalization library                                            ELPA
 GLOBAL| DGEMM library                                                      BLAS
 GLOBAL| Minimum number of eigenvectors for ELPA usage                        16
 GLOBAL| Orthonormality check for eigenvectors                          DISABLED
 GLOBAL| Matrix multiplication library                                 ScaLAPACK
 GLOBAL| All-to-all communication in single precision                          F
 GLOBAL| FFTs using library dependent lengths                                  F
 GLOBAL| Grid backend                                                       AUTO
 GLOBAL| Global print level                                                  LOW
 GLOBAL| MPI I/O enabled                                                       T
 GLOBAL| Total number of message passing processes                            16
 GLOBAL| Number of threads for this process                                    1
 GLOBAL| This output is from process                                           0
 GLOBAL| Stack size for threads created by OpenMP (OMP_STACKSIZE)        default
 GLOBAL| CPU model name                 Intel(R) Xeon(R) Gold 6144 CPU @ 3.50GHz

 MEMORY| system memory details [Kb]
 MEMORY|                        rank 0           min           max       average
 MEMORY| MemTotal             65579904      65579904      65579904      65579904
 MEMORY| MemFree              61504840      61504840      61504840      61504840
 MEMORY| Buffers                450176        450176        450176        450176
 MEMORY| Cached                1506656       1506656       1506656       1506656
 MEMORY| Slab                   351336        351336        351336        351336
 MEMORY| SReclaimable           144112        144112        144112        144112
 MEMORY| MemLikelyFree        63605784      63605784      63605784      63605784


 GENERATE|  Preliminary Number of Bonds generated:                             0
 GENERATE|  Achieved consistency in connectivity generation.

 *******************************************************************************
 *******************************************************************************
 **                                                                           **
 **     #####                         ##              ##                      **
 **    ##   ##            ##          ##              ##                      **
 **   ##     ##                       ##            ######                    **
 **   ##     ##  ##   ##  ##   #####  ##  ##   ####   ##    #####    #####    **
 **   ##     ##  ##   ##  ##  ##      ## ##   ##      ##   ##   ##  ##   ##   **
 **   ##  ## ##  ##   ##  ##  ##      ####     ###    ##   ######   ######    **
 **    ##  ###   ##   ##  ##  ##      ## ##      ##   ##   ##       ##        **
 **     #######   #####   ##   #####  ##  ##  ####    ##    #####   ##        **
 **           ##                                                    ##        **
 **                                                                           **
 **                                                ... make the atoms dance   **
 **                                                                           **
 **            Copyright (C) by CP2K developers group (2000-2022)             **
 **                      J. Chem. Phys. 152, 194103 (2020)                    **
 **                                                                           **
 *******************************************************************************


 TOTAL NUMBERS AND MAXIMUM NUMBERS

  Total number of            - Atomic kinds:                                   2
                             - Atoms:                                         43
                             - Shell sets:                                    43
                             - Shells:                                       215
                             - Primitive Cartesian functions:                217
                             - Cartesian basis functions:                    597
                             - Spherical basis functions:                    555

  Maximum angular momentum of- Orbital basis functions:                        2
                             - Local part of the GTH pseudopotential:          2
                             - Non-local part of the GTH pseudopotential:      1


 SCF PARAMETERS         Density guess:                                    ATOMIC
                        --------------------------------------------------------
                        max_scf:                                             200
                        max_scf_history:                                       0
                        max_diis:                                              4
                        --------------------------------------------------------
                        eps_scf:                                        3.00E-07
                        eps_scf_history:                                0.00E+00
                        eps_diis:                                       1.00E-01
                        eps_eigval:                                     1.00E-05
                        --------------------------------------------------------
                        level_shift [a.u.]:                             0.000000
                        added MOs                                       100  100
                        --------------------------------------------------------
                        Mixing method:                            BROYDEN_MIXING
                                                charge density mixing in g-space
                        --------------------------------------------------------
                        Smear method:                                FERMI_DIRAC
                        Electronic temperature [K]:                        300.0
                        Electronic temperature [a.u.]:                  9.50E-04
                        Accuracy threshold:                             1.00E-10
                        --------------------------------------------------------
                        Outer loop SCF in use 
                        No variables optimised in outer loop
                        eps_scf                                         1.00E-06
                        max_scf                                              300
                        DIIS optimization
                        DIIS buffer length                                     3
                        step_size                                       5.00E-01

 -------------------------------------------------------------------------------
 -                                                                             -
 -  BSSE CALCULATION         FRAGMENT CONF: 10        FRAGMENT SUBCONF: 10     -
 -                           CHARGE =     0           MULTIPLICITY =     0     -
 -                                                                             -
 -                 ATOM INDEX                              ATOM NAME           -
 -                 ----------                              ---------           -
 -                      1                                   C                  -
 -                      2                                   C                  -
 -                      3                                   C                  -
 -                      4                                   C                  -
 -                      5                                   C                  -
 -                      6                                   C                  -
 -                      7                                   C                  -
 -                      8                                   C                  -
 -                      9                                   C                  -
 -                     10                                   C                  -
 -                     11                                   C                  -
 -                     12                                   C                  -
 -                     13                                   C                  -
 -                     14                                   C                  -
 -                     15                                   C                  -
 -                     16                                   C                  -
 -                     17                                   C                  -
 -                     18                                   C                  -
 -                     19                                   C                  -
 -                     20                                   C                  -
 -                     21                                   C                  -
 -                     22                                   C                  -
 -                     23                                   C                  -
 -                     24                                   C                  -
 -                     25                                   C                  -
 -                     26                                   C                  -
 -                     27                                   C                  -
 -                     28                                   C                  -
 -                     29                                   C                  -
 -                     30                                   C                  -
 -                     31                                   C                  -
 -                     32                                   C                  -
 -                     33                                   C                  -
 -                     34                                   C                  -
 -                     35                                   C                  -
 -                     36                                   C                  -
 -                     37                                   C                  -
 -                     38                                   C                  -
 -                     39                                   C                  -
 -                     40                                   C                  -
 -                     41                                   C                  -
 -                     42                                   C                  -
 -------------------------------------------------------------------------------

 *******************************************************************************
 *******************************************************************************
 **                                                                           **
 **     #####                         ##              ##                      **
 **    ##   ##            ##          ##              ##                      **
 **   ##     ##                       ##            ######                    **
 **   ##     ##  ##   ##  ##   #####  ##  ##   ####   ##    #####    #####    **
 **   ##     ##  ##   ##  ##  ##      ## ##   ##      ##   ##   ##  ##   ##   **
 **   ##  ## ##  ##   ##  ##  ##      ####     ###    ##   ######   ######    **
 **    ##  ###   ##   ##  ##  ##      ## ##      ##   ##   ##       ##        **
 **     #######   #####   ##   #####  ##  ##  ####    ##    #####   ##        **
 **           ##                                                    ##        **
 **                                                                           **
 **                                                ... make the atoms dance   **
 **                                                                           **
 **            Copyright (C) by CP2K developers group (2000-2022)             **
 **                      J. Chem. Phys. 152, 194103 (2020)                    **
 **                                                                           **
 *******************************************************************************


 TOTAL NUMBERS AND MAXIMUM NUMBERS

  Total number of            - Atomic kinds:                                   1
                             - Atoms:                                         42
                             - Shell sets:                                    42
                             - Shells:                                       210
                             - Primitive Cartesian functions:                210
                             - Cartesian basis functions:                    588
                             - Spherical basis functions:                    546

  Maximum angular momentum of- Orbital basis functions:                        2
                             - Local part of the GTH pseudopotential:          2
                             - Non-local part of the GTH pseudopotential:      0


 SCF PARAMETERS         Density guess:                                    ATOMIC
                        --------------------------------------------------------
                        max_scf:                                             200
                        max_scf_history:                                       0
                        max_diis:                                              4
                        --------------------------------------------------------
                        eps_scf:                                        3.00E-07
                        eps_scf_history:                                0.00E+00
                        eps_diis:                                       1.00E-01
                        eps_eigval:                                     1.00E-05
                        --------------------------------------------------------
                        level_shift [a.u.]:                             0.000000
                        added MOs                                       100  100
                        --------------------------------------------------------
                        Mixing method:                            BROYDEN_MIXING
                                                charge density mixing in g-space
                        --------------------------------------------------------
                        Smear method:                                FERMI_DIRAC
                        Electronic temperature [K]:                        300.0
                        Electronic temperature [a.u.]:                  9.50E-04
                        Accuracy threshold:                             1.00E-10
                        --------------------------------------------------------
                        Outer loop SCF in use 
                        No variables optimised in outer loop
                        eps_scf                                         1.00E-06
                        max_scf                                              300
                        DIIS optimization
                        DIIS buffer length                                     3
                        step_size                                       5.00E-01

 Spin 1

 Number of electrons:                                                         84
 Number of occupied orbitals:                                                 84
 Number of molecular orbitals:                                               184

 Spin 2

 Number of electrons:                                                         84
 Number of occupied orbitals:                                                 84
 Number of molecular orbitals:                                               184

 Number of orbital functions:                                                546
 Number of independent orbital functions:                                    546

 Extrapolation method: initial_guess


 SCF WAVEFUNCTION OPTIMIZATION

  Step     Update method      Time    Convergence         Total energy    Change
  ------------------------------------------------------------------------------
     1 NoMix/Diag. 0.10E+00    4.1     0.46344580      -236.0468780821 -2.36E+02
     2 Broy./Diag. 0.10E+00    8.2     0.01145125      -229.5816586533  6.47E+00
     3 Broy./Diag. 0.10E+00    8.6     0.06408221      -234.0647280854 -4.48E+00
     4 Broy./Diag. 0.10E+00    8.8     0.00818046      -236.6592892425 -2.59E+00
     5 Broy./Diag. 0.10E+00    8.9     0.02626758      -237.3245396097 -6.65E-01
     6 Broy./Diag. 0.10E+00    9.2     0.00437339      -237.5900554442 -2.66E-01
     7 Broy./Diag. 0.10E+00    9.4     0.01355903      -237.6790779518 -8.90E-02
     8 Broy./Diag. 0.10E+00    9.6     0.00449609      -237.7590573258 -8.00E-02
     9 Broy./Diag. 0.10E+00   10.0     0.00480472      -237.7920872640 -3.30E-02
    10 Broy./Diag. 0.10E+00   10.3     0.00395468      -237.8298201258 -3.77E-02
    11 Broy./Diag. 0.10E+00   10.7     0.00581551      -237.8491344636 -1.93E-02
    12 Broy./Diag. 0.10E+00   11.2     0.00394402      -237.8811598267 -3.20E-02
    13 Broy./Diag. 0.10E+00   11.6     0.00161833      -237.8866194922 -5.46E-03
    14 Broy./Diag. 0.10E+00   12.1     0.00080378      -237.9067526513 -2.01E-02
    15 Broy./Diag. 0.10E+00   12.9     0.00083522      -237.9249369225 -1.82E-02
    16 Broy./Diag. 0.10E+00   14.4     0.00073701      -237.9391363548 -1.42E-02
    17 Broy./Diag. 0.10E+00   24.4     0.00082699      -237.9493674781 -1.02E-02
    18 Broy./Diag. 0.10E+00   14.1     0.00025738      -237.9567386941 -7.37E-03
    19 Broy./Diag. 0.10E+00   14.0     0.00021502      -237.9582733345 -1.53E-03
    20 Broy./Diag. 0.10E+00   14.0     0.00021033      -237.9602992263 -2.03E-03
    21 Broy./Diag. 0.10E+00   14.0     0.00029649      -237.9602883345  1.09E-05
    22 Broy./Diag. 0.10E+00   13.9     0.00019876      -237.9600547513  2.34E-04
    23 Broy./Diag. 0.10E+00   14.0     0.00006657      -237.9608154818 -7.61E-04
    24 Broy./Diag. 0.10E+00   14.0     0.00008299      -237.9631057825 -2.29E-03
    25 Broy./Diag. 0.10E+00   13.9     0.00007305      -237.9665562822 -3.45E-03
    26 Broy./Diag. 0.10E+00   13.9     0.00004367      -237.9690954152 -2.54E-03
    27 Broy./Diag. 0.10E+00   14.0     0.00006141      -237.9711097415 -2.01E-03
    28 Broy./Diag. 0.10E+00   14.0     0.00005185      -237.9724133450 -1.30E-03
    29 Broy./Diag. 0.10E+00   13.9     0.00004960      -237.9728149611 -4.02E-04
    30 Broy./Diag. 0.10E+00   14.0     0.00007492      -237.9728197350 -4.77E-06
    31 Broy./Diag. 0.10E+00   14.0     0.00004491      -237.9730126416 -1.93E-04
    32 Broy./Diag. 0.10E+00   14.0     0.00009735      -237.9730016220  1.10E-05
    33 Broy./Diag. 0.10E+00   14.0     0.00003762      -237.9731474048 -1.46E-04
    34 Broy./Diag. 0.10E+00   14.1     0.00008892      -237.9731307329  1.67E-05
    35 Broy./Diag. 0.10E+00   14.0     0.00004516      -237.9732260583 -9.53E-05
    36 Broy./Diag. 0.10E+00   14.0     0.00004847      -237.9731093054  1.17E-04
    37 Broy./Diag. 0.10E+00   14.2     0.00000619      -237.9730678990  4.14E-05
    38 Broy./Diag. 0.10E+00   14.3     0.00004723      -237.9730880149 -2.01E-05
    39 Broy./Diag. 0.10E+00   14.3     0.00000513      -237.9731481427 -6.01E-05
    40 Broy./Diag. 0.10E+00   14.3     0.00003291      -237.9732904856 -1.42E-04
    41 Broy./Diag. 0.10E+00   14.3     0.00002800      -237.9734307885 -1.40E-04
    42 Broy./Diag. 0.10E+00   14.3     0.00003157      -237.9735081614 -7.74E-05
    43 Broy./Diag. 0.10E+00   14.2     0.00002150      -237.9735580686 -4.99E-05
    44 Broy./Diag. 0.10E+00   14.4     0.00000928      -237.9735938479 -3.58E-05
    45 Broy./Diag. 0.10E+00   14.4     0.00003784      -237.9736076868 -1.38E-05
    46 Broy./Diag. 0.10E+00   14.3     0.00000235      -237.9736179670 -1.03E-05
    47 Broy./Diag. 0.10E+00   14.3     0.00002187      -237.9736253194 -7.35E-06
    48 Broy./Diag. 0.10E+00   14.3     0.00002229      -237.9736250194  3.00E-07
    49 Broy./Diag. 0.10E+00   14.2     0.00005917      -237.9736158090  9.21E-06
    50 Broy./Diag. 0.10E+00   14.2     0.00002971      -237.9736066024  9.21E-06
    51 Broy./Diag. 0.10E+00   14.2     0.00003132      -237.9736016894  4.91E-06
    52 Broy./Diag. 0.10E+00   14.2     0.00008278      -237.9735940289  7.66E-06
    53 Broy./Diag. 0.10E+00   14.2     0.00001578      -237.9735930508  9.78E-07
    54 Broy./Diag. 0.10E+00   14.2     0.00002817      -237.9735905244  2.53E-06
    55 Broy./Diag. 0.10E+00   14.3     0.00001107      -237.9735858261  4.70E-06
    56 Broy./Diag. 0.10E+00   14.3     0.00002544      -237.9735867505 -9.24E-07
    57 Broy./Diag. 0.10E+00   14.2     0.00001034      -237.9735852653  1.49E-06
    58 Broy./Diag. 0.10E+00   14.2     0.00000318      -237.9735839273  1.34E-06
    59 Broy./Diag. 0.10E+00   14.2     0.00001116      -237.9735823384  1.59E-06
    60 Broy./Diag. 0.10E+00   14.2     0.00001040      -237.9735829653 -6.27E-07
    61 Broy./Diag. 0.10E+00   14.2     0.00001309      -237.9735838606 -8.95E-07
    62 Broy./Diag. 0.10E+00   14.2     0.00001804      -237.9735795870  4.27E-06
    63 Broy./Diag. 0.10E+00   14.2     0.00001433      -237.9735762677  3.32E-06
    64 Broy./Diag. 0.10E+00   14.2     0.00000567      -237.9735748535  1.41E-06
    65 Broy./Diag. 0.10E+00   14.3     0.00000781      -237.9735748187  3.47E-08
    66 Broy./Diag. 0.10E+00   14.2     0.00000630      -237.9735744028  4.16E-07
    67 Broy./Diag. 0.10E+00   14.3     0.00000126      -237.9735740227  3.80E-07
    68 Broy./Diag. 0.10E+00   14.2     0.00000268      -237.9735742434 -2.21E-07
    69 Broy./Diag. 0.10E+00   14.2     0.00000088      -237.9735739235  3.20E-07
    70 Broy./Diag. 0.10E+00   14.3     0.00000259      -237.9735735962  3.27E-07
    71 Broy./Diag. 0.10E+00   14.2     0.00000130      -237.9735736147 -1.85E-08
    72 Broy./Diag. 0.10E+00   14.2     0.00000318      -237.9735735826  3.21E-08
    73 Broy./Diag. 0.10E+00   14.2     0.00001131      -237.9735740481 -4.65E-07
    74 Broy./Diag. 0.10E+00   14.2     0.00000873      -237.9735732181  8.30E-07
    75 Broy./Diag. 0.10E+00   14.2     0.00000523      -237.9735723097  9.08E-07
    76 Broy./Diag. 0.10E+00   14.2     0.00001111      -237.9735716385  6.71E-07
    77 Broy./Diag. 0.10E+00   14.2     0.00000648      -237.9735717986 -1.60E-07
    78 Broy./Diag. 0.10E+00   14.2     0.00000126      -237.9735717730  2.56E-08
    79 Broy./Diag. 0.10E+00   14.2     0.00000003      -237.9735717900 -1.70E-08

  *** SCF run converged in    79 steps ***


  Electronic density on regular grids:       -168.0000000000        0.0000000000
  Core density on regular grids:              167.9999999999       -0.0000000001
  Total charge density on r-space grids:       -0.0000000001
  Total charge density g-space grids:          -0.0000000001

  Overlap energy of the core charge distribution:               0.00000836868231
  Self energy of the core charge distribution:               -560.07033292413882
  Core Hamiltonian energy:                                    172.47486473849756
  Hartree energy:                                             221.70852866528119
  Exchange-correlation energy:                                -72.04537931664632
  Dispersion energy:                                           -0.03772957574913
  Electronic entropic energy:                                  -0.00353174594687
  Fermi energy:                                                -0.18327766132098

  Total energy:                                              -237.97357178999394

  outer SCF iter =    1 RMS gradient =   0.32E-07 energy =       -237.9735717900
  outer SCF loop converged in   1 iterations or   79 steps


  Integrated absolute spin density  :                               0.0029230298
  WARNING: S**2 computation does not yet treat fractional occupied orbitals

 *** WARNING in qs_loc_utils.F:1500 :: User requested the calculation of ***
 *** the localized wavefunction but the section LOCALIZE was not         ***
 *** specified. Localization will not be performed!                      ***


 -------------------------------------------------------------------------------
 -                                                                             -
 -  BSSE CALCULATION         FRAGMENT CONF: 01        FRAGMENT SUBCONF: 01     -
 -                           CHARGE =     0           MULTIPLICITY =     0     -
 -                                                                             -
 -                 ATOM INDEX                              ATOM NAME           -
 -                 ----------                              ---------           -
 -                     43                                   Na                 -
 -------------------------------------------------------------------------------

 *******************************************************************************
 *******************************************************************************
 **                                                                           **
 **     #####                         ##              ##                      **
 **    ##   ##            ##          ##              ##                      **
 **   ##     ##                       ##            ######                    **
 **   ##     ##  ##   ##  ##   #####  ##  ##   ####   ##    #####    #####    **
 **   ##     ##  ##   ##  ##  ##      ## ##   ##      ##   ##   ##  ##   ##   **
 **   ##  ## ##  ##   ##  ##  ##      ####     ###    ##   ######   ######    **
 **    ##  ###   ##   ##  ##  ##      ## ##      ##   ##   ##       ##        **
 **     #######   #####   ##   #####  ##  ##  ####    ##    #####   ##        **
 **           ##                                                    ##        **
 **                                                                           **
 **                                                ... make the atoms dance   **
 **                                                                           **
 **            Copyright (C) by CP2K developers group (2000-2022)             **
 **                      J. Chem. Phys. 152, 194103 (2020)                    **
 **                                                                           **
 *******************************************************************************

 *** WARNING in qs_environment.F:1470 :: More ADDED_MOs requested for beta ***
 *** spin than available.                                                  ***


 *** WARNING in qs_environment.F:1486 :: More added MOs requested than     ***
 *** available. The full set of unoccupied MOs will be used. Use           ***
 *** 'ADDED_MOS -1' to always use all available MOs and to get rid of this ***
 *** warning.                                                              ***



 TOTAL NUMBERS AND MAXIMUM NUMBERS

  Total number of            - Atomic kinds:                                   1
                             - Atoms:                                          1
                             - Shell sets:                                     1
                             - Shells:                                         5
                             - Primitive Cartesian functions:                  7
                             - Cartesian basis functions:                      9
                             - Spherical basis functions:                      9

  Maximum angular momentum of- Orbital basis functions:                        1
                             - Local part of the GTH pseudopotential:          2
                             - Non-local part of the GTH pseudopotential:      1


 SCF PARAMETERS         Density guess:                                    ATOMIC
                        --------------------------------------------------------
                        max_scf:                                             200
                        max_scf_history:                                       0
                        max_diis:                                              4
                        --------------------------------------------------------
                        eps_scf:                                        3.00E-07
                        eps_scf_history:                                0.00E+00
                        eps_diis:                                       1.00E-01
                        eps_eigval:                                     1.00E-05
                        --------------------------------------------------------
                        level_shift [a.u.]:                             0.000000
                        added MOs                                         4    5
                        --------------------------------------------------------
                        Mixing method:                            BROYDEN_MIXING
                                                charge density mixing in g-space
                        --------------------------------------------------------
                        Smear method:                                FERMI_DIRAC
                        Electronic temperature [K]:                        300.0
                        Electronic temperature [a.u.]:                  9.50E-04
                        Accuracy threshold:                             1.00E-10
                        --------------------------------------------------------
                        Outer loop SCF in use 
                        No variables optimised in outer loop
                        eps_scf                                         1.00E-06
                        max_scf                                              300
                        DIIS optimization
                        DIIS buffer length                                     3
                        step_size                                       5.00E-01

 Spin 1

 Number of electrons:                                                          5
 Number of occupied orbitals:                                                  5
 Number of molecular orbitals:                                                 9

 Spin 2

 Number of electrons:                                                          4
 Number of occupied orbitals:                                                  4
 Number of molecular orbitals:                                                 9

 Number of orbital functions:                                                  9
 Number of independent orbital functions:                                      9

 Extrapolation method: initial_guess


 SCF WAVEFUNCTION OPTIMIZATION

  Step     Update method      Time    Convergence         Total energy    Change
  ------------------------------------------------------------------------------
     1 NoMix/Diag. 0.10E+00    3.5     0.42045447       -47.1708500789 -4.72E+01
     2 Broy./Diag. 0.10E+00    7.8     0.00688674       -47.1304567826  4.04E-02
     3 Broy./Diag. 0.10E+00    8.2     0.02089403       -47.1717191883 -4.13E-02
     4 Broy./Diag. 0.10E+00    8.3     0.00033270       -47.1629145394  8.80E-03
     5 Broy./Diag. 0.10E+00    8.5     0.12616752       -47.1731313609 -1.02E-02
     6 Broy./Diag. 0.10E+00    8.6     0.01721379       -46.7612244149  4.12E-01
     7 Broy./Diag. 0.10E+00    8.9     0.00395853       -46.7497702820  1.15E-02
     8 Broy./Diag. 0.10E+00    9.1     0.01061360       -46.7651844486 -1.54E-02
     9 Broy./Diag. 0.10E+00    9.5     0.04238394       -46.8658294997 -1.01E-01
    10 Broy./Diag. 0.10E+00    9.8     0.01782665       -47.0212155893 -1.55E-01
    11 Broy./Diag. 0.10E+00   10.3     0.00549341       -47.0908987702 -6.97E-02
    12 Broy./Diag. 0.10E+00   10.7     0.01483753       -47.1127166479 -2.18E-02
    13 Broy./Diag. 0.10E+00   11.2     0.01919550       -47.1625308161 -4.98E-02
    14 Broy./Diag. 0.10E+00   11.7     0.00337643       -47.2184559998 -5.59E-02
    15 Broy./Diag. 0.10E+00   12.2     0.01216930       -47.1777657299  4.07E-02
    16 Broy./Diag. 0.10E+00   12.8     0.00928424       -47.1550937046  2.27E-02
    17 Broy./Diag. 0.10E+00   13.5     0.00244639       -47.1921767792 -3.71E-02
    18 Broy./Diag. 0.10E+00   13.4     0.00161907       -47.2070966173 -1.49E-02
    19 Broy./Diag. 0.10E+00   13.4     0.00740964       -47.2247294293 -1.76E-02
    20 Broy./Diag. 0.10E+00   13.4     0.00253308       -47.2665917938 -4.19E-02
    21 Broy./Diag. 0.10E+00   13.4     0.00063765       -47.2767835890 -1.02E-02
    22 Broy./Diag. 0.10E+00   13.4     0.00064294       -47.2723822869  4.40E-03
    23 Broy./Diag. 0.10E+00   13.4     0.01294826       -47.2985429533 -2.62E-02
    24 Broy./Diag. 0.10E+00   13.4     0.00143957       -47.2411285906  5.74E-02
    25 Broy./Diag. 0.10E+00   13.4     0.00010155       -47.2355972330  5.53E-03
    26 Broy./Diag. 0.10E+00   13.4     0.00009106       -47.2367996406 -1.20E-03
    27 Broy./Diag. 0.10E+00   13.4     0.00262220       -47.2442567693 -7.46E-03
    28 Broy./Diag. 0.10E+00   13.4     0.00018571       -47.2574391123 -1.32E-02
    29 Broy./Diag. 0.10E+00   13.4     0.00039765       -47.2533315589  4.11E-03
    30 Broy./Diag. 0.10E+00   13.4     0.00024677       -47.2562600149 -2.93E-03
    31 Broy./Diag. 0.10E+00   13.4     0.00408785       -47.2497076366  6.55E-03
    32 Broy./Diag. 0.10E+00   13.4     0.00339386       -47.2695216365 -1.98E-02
    33 Broy./Diag. 0.10E+00   13.4     0.00265254       -47.2878760629 -1.84E-02
    34 Broy./Diag. 0.10E+00   13.4     0.00077667       -47.3045008748 -1.66E-02
    35 Broy./Diag. 0.10E+00   13.4     0.00086487       -47.3080644287 -3.56E-03
    36 Broy./Diag. 0.10E+00   13.3     0.00037538       -47.3131146302 -5.05E-03
    37 Broy./Diag. 0.10E+00   13.4     0.00020252       -47.3098370017  3.28E-03
    38 Broy./Diag. 0.10E+00   13.4     0.00036206       -47.3089240254  9.13E-04
    39 Broy./Diag. 0.10E+00   13.4     0.00038781       -47.2919126701  1.70E-02
    40 Broy./Diag. 0.10E+00   13.4     0.00047777       -47.2721685681  1.97E-02
    41 Broy./Diag. 0.10E+00   13.4     0.00032529       -47.2567300204  1.54E-02
    42 Broy./Diag. 0.10E+00   13.4     0.00025584       -47.2425751436  1.42E-02
    43 Broy./Diag. 0.10E+00   13.3     0.00020509       -47.2325540063  1.00E-02
    44 Broy./Diag. 0.10E+00   13.4     0.00019270       -47.2217850126  1.08E-02
    45 Broy./Diag. 0.10E+00   13.4     0.00011255       -47.2139190488  7.87E-03
    46 Broy./Diag. 0.10E+00   13.4     0.00016507       -47.2043655700  9.55E-03
    47 Broy./Diag. 0.10E+00   13.4     0.00019677       -47.1935018867  1.09E-02
    48 Broy./Diag. 0.10E+00   13.4     0.00021879       -47.1826139150  1.09E-02
    49 Broy./Diag. 0.10E+00   13.3     0.00016032       -47.1743409992  8.27E-03
    50 Broy./Diag. 0.10E+00   13.3     0.00009214       -47.1699112463  4.43E-03
    51 Broy./Diag. 0.10E+00   13.3     0.00064886       -47.1669206235  2.99E-03
    52 Broy./Diag. 0.10E+00   13.3     0.00001359       -47.1648841262  2.04E-03
    53 Broy./Diag. 0.10E+00   13.3     0.00002991       -47.1657443382 -8.60E-04
    54 Broy./Diag. 0.10E+00   13.3     0.00032972       -47.1651691464  5.75E-04
    55 Broy./Diag. 0.10E+00   13.4     0.00029963       -47.1653166948 -1.48E-04
    56 Broy./Diag. 0.10E+00   13.3     0.00005721       -47.1657397215 -4.23E-04
    57 Broy./Diag. 0.10E+00   13.3     0.00005813       -47.1652802967  4.59E-04
    58 Broy./Diag. 0.10E+00   13.3     0.00000521       -47.1652135766  6.67E-05
    59 Broy./Diag. 0.10E+00   13.4     0.00031936       -47.1648974174  3.16E-04
    60 Broy./Diag. 0.10E+00   13.4     0.00006859       -47.1643421482  5.55E-04
    61 Broy./Diag. 0.10E+00   13.4     0.00009322       -47.1644106953 -6.85E-05
    62 Broy./Diag. 0.10E+00   13.4     0.00000625       -47.1647075402 -2.97E-04
    63 Broy./Diag. 0.10E+00   13.4     0.00003133       -47.1653171285 -6.10E-04
    64 Broy./Diag. 0.10E+00   13.3     0.00007754       -47.1654326625 -1.16E-04
    65 Broy./Diag. 0.10E+00   13.4     0.00004404       -47.1653096683  1.23E-04
    66 Broy./Diag. 0.10E+00   13.4     0.00007589       -47.1651841127  1.26E-04
    67 Broy./Diag. 0.10E+00   13.4     0.00003526       -47.1649910236  1.93E-04
    68 Broy./Diag. 0.10E+00   13.4     0.00001263       -47.1649205011  7.05E-05
    69 Broy./Diag. 0.10E+00   13.4     0.00001102       -47.1648910925  2.94E-05
    70 Broy./Diag. 0.10E+00   13.4     0.00000706       -47.1650686753 -1.78E-04
    71 Broy./Diag. 0.10E+00   13.4     0.00001426       -47.1649213779  1.47E-04
    72 Broy./Diag. 0.10E+00   13.4     0.00000672       -47.1647981419  1.23E-04
    73 Broy./Diag. 0.10E+00   13.4     0.00001293       -47.1647750003  2.31E-05
    74 Broy./Diag. 0.10E+00   13.4     0.00002211       -47.1648154508 -4.05E-05
    75 Broy./Diag. 0.10E+00   13.4     0.00001291       -47.1649064190 -9.10E-05
    76 Broy./Diag. 0.10E+00   13.4     0.00000198       -47.1648935590  1.29E-05
    77 Broy./Diag. 0.10E+00   13.4     0.00000594       -47.1648740205  1.95E-05
    78 Broy./Diag. 0.10E+00   13.3     0.00002624       -47.1649492873 -7.53E-05
    79 Broy./Diag. 0.10E+00   13.4     0.00000742       -47.1649654167 -1.61E-05
    80 Broy./Diag. 0.10E+00   13.4     0.00003828       -47.1649692602 -3.84E-06
    81 Broy./Diag. 0.10E+00   13.4     0.00008049       -47.1649040122  6.52E-05
    82 Broy./Diag. 0.10E+00   13.4     0.00005338       -47.1650556175 -1.52E-04
    83 Broy./Diag. 0.10E+00   13.4     0.00004906       -47.1649154739  1.40E-04
    84 Broy./Diag. 0.10E+00   13.3     0.00006163       -47.1650084184 -9.29E-05
    85 Broy./Diag. 0.10E+00   13.3     0.00005463       -47.1648772124  1.31E-04
    86 Broy./Diag. 0.10E+00   13.3     0.00004956       -47.1649835331 -1.06E-04
    87 Broy./Diag. 0.10E+00   13.3     0.00004822       -47.1648846514  9.89E-05
    88 Broy./Diag. 0.10E+00   13.3     0.00000548       -47.1649841870 -9.95E-05
    89 Broy./Diag. 0.10E+00   13.3     0.00000315       -47.1649605353  2.37E-05
    90 Broy./Diag. 0.10E+00   13.3     0.00003772       -47.1649546985  5.84E-06
    91 Broy./Diag. 0.10E+00   13.3     0.00002651       -47.1650297068 -7.50E-05
    92 Broy./Diag. 0.10E+00   13.3     0.00000771       -47.1649476193  8.21E-05
    93 Broy./Diag. 0.10E+00   13.3     0.00000781       -47.1649725082 -2.49E-05
    94 Broy./Diag. 0.10E+00   13.3     0.00000553       -47.1649849566 -1.24E-05
    95 Broy./Diag. 0.10E+00   13.3     0.00000729       -47.1649743625  1.06E-05
    96 Broy./Diag. 0.10E+00   13.3     0.00000414       -47.1650015277 -2.72E-05
    97 Broy./Diag. 0.10E+00   13.3     0.00000962       -47.1650210062 -1.95E-05
    98 Broy./Diag. 0.10E+00   13.3     0.00000153       -47.1650588503 -3.78E-05
    99 Broy./Diag. 0.10E+00   13.3     0.00000264       -47.1650614930 -2.64E-06
   100 Broy./Diag. 0.10E+00   13.3     0.00000089       -47.1650563979  5.10E-06
   101 Broy./Diag. 0.10E+00   13.3     0.00000070       -47.1650688918 -1.25E-05
   102 Broy./Diag. 0.10E+00   13.3     0.00000106       -47.1650779212 -9.03E-06
   103 Broy./Diag. 0.10E+00   13.3     0.00000142       -47.1650889354 -1.10E-05
   104 Broy./Diag. 0.10E+00   13.3     0.00000029       -47.1651014197 -1.25E-05

  *** SCF run converged in   104 steps ***


  Electronic density on regular grids:         -9.0000012720       -0.0000012720
  Core density on regular grids:                9.0000000000       -0.0000000000
  Total charge density on r-space grids:       -0.0000012720
  Total charge density g-space grids:          -0.0000012720

  Overlap energy of the core charge distribution:               0.00000000000000
  Self energy of the core charge distribution:                -96.60649019442629
  Core Hamiltonian energy:                                     29.76208091813805
  Hartree energy:                                              26.73438110030283
  Exchange-correlation energy:                                 -7.05506440915717
  Dispersion energy:                                           -0.00000883455364
  Electronic entropic energy:                                  -0.00000000000000
  Fermi energy:                                                -0.07349195912802

  Total energy:                                               -47.16510141969621

  outer SCF iter =    1 RMS gradient =   0.29E-06 energy =        -47.1651014197
  outer SCF loop converged in   1 iterations or  104 steps


  Integrated absolute spin density  :                               1.0000438095
  WARNING: S**2 computation does not yet treat fractional occupied orbitals

 *** WARNING in qs_loc_utils.F:1500 :: User requested the calculation of ***
 *** the localized wavefunction but the section LOCALIZE was not         ***
 *** specified. Localization will not be performed!                      ***


 -------------------------------------------------------------------------------
 -                                                                             -
 -  BSSE CALCULATION         FRAGMENT CONF: 11        FRAGMENT SUBCONF: 10     -
 -                           CHARGE =     0           MULTIPLICITY =     0     -
 -                                                                             -
 -                 ATOM INDEX                              ATOM NAME           -
 -                 ----------                              ---------           -
 -                      1                                   C                  -
 -                      2                                   C                  -
 -                      3                                   C                  -
 -                      4                                   C                  -
 -                      5                                   C                  -
 -                      6                                   C                  -
 -                      7                                   C                  -
 -                      8                                   C                  -
 -                      9                                   C                  -
 -                     10                                   C                  -
 -                     11                                   C                  -
 -                     12                                   C                  -
 -                     13                                   C                  -
 -                     14                                   C                  -
 -                     15                                   C                  -
 -                     16                                   C                  -
 -                     17                                   C                  -
 -                     18                                   C                  -
 -                     19                                   C                  -
 -                     20                                   C                  -
 -                     21                                   C                  -
 -                     22                                   C                  -
 -                     23                                   C                  -
 -                     24                                   C                  -
 -                     25                                   C                  -
 -                     26                                   C                  -
 -                     27                                   C                  -
 -                     28                                   C                  -
 -                     29                                   C                  -
 -                     30                                   C                  -
 -                     31                                   C                  -
 -                     32                                   C                  -
 -                     33                                   C                  -
 -                     34                                   C                  -
 -                     35                                   C                  -
 -                     36                                   C                  -
 -                     37                                   C                  -
 -                     38                                   C                  -
 -                     39                                   C                  -
 -                     40                                   C                  -
 -                     41                                   C                  -
 -                     42                                   C                  -
 -                     43                                   Na_ghost           -
 -------------------------------------------------------------------------------

 *******************************************************************************
 *******************************************************************************
 **                                                                           **
 **     #####                         ##              ##                      **
 **    ##   ##            ##          ##              ##                      **
 **   ##     ##                       ##            ######                    **
 **   ##     ##  ##   ##  ##   #####  ##  ##   ####   ##    #####    #####    **
 **   ##     ##  ##   ##  ##  ##      ## ##   ##      ##   ##   ##  ##   ##   **
 **   ##  ## ##  ##   ##  ##  ##      ####     ###    ##   ######   ######    **
 **    ##  ###   ##   ##  ##  ##      ## ##      ##   ##   ##       ##        **
 **     #######   #####   ##   #####  ##  ##  ####    ##    #####   ##        **
 **           ##                                                    ##        **
 **                                                                           **
 **                                                ... make the atoms dance   **
 **                                                                           **
 **            Copyright (C) by CP2K developers group (2000-2022)             **
 **                      J. Chem. Phys. 152, 194103 (2020)                    **
 **                                                                           **
 *******************************************************************************


 TOTAL NUMBERS AND MAXIMUM NUMBERS

  Total number of            - Atomic kinds:                                   2
                             - Atoms:                                         43
                             - Shell sets:                                    43
                             - Shells:                                       215
                             - Primitive Cartesian functions:                217
                             - Cartesian basis functions:                    597
                             - Spherical basis functions:                    555

  Maximum angular momentum of- Orbital basis functions:                        2
                             - Local part of the GTH pseudopotential:          2
                             - Non-local part of the GTH pseudopotential:      0


 SCF PARAMETERS         Density guess:                                    ATOMIC
                        --------------------------------------------------------
                        max_scf:                                             200
                        max_scf_history:                                       0
                        max_diis:                                              4
                        --------------------------------------------------------
                        eps_scf:                                        3.00E-07
                        eps_scf_history:                                0.00E+00
                        eps_diis:                                       1.00E-01
                        eps_eigval:                                     1.00E-05
                        --------------------------------------------------------
                        level_shift [a.u.]:                             0.000000
                        added MOs                                       100  100
                        --------------------------------------------------------
                        Mixing method:                            BROYDEN_MIXING
                                                charge density mixing in g-space
                        --------------------------------------------------------
                        Smear method:                                FERMI_DIRAC
                        Electronic temperature [K]:                        300.0
                        Electronic temperature [a.u.]:                  9.50E-04
                        Accuracy threshold:                             1.00E-10
                        --------------------------------------------------------
                        Outer loop SCF in use 
                        No variables optimised in outer loop
                        eps_scf                                         1.00E-06
                        max_scf                                              300
                        DIIS optimization
                        DIIS buffer length                                     3
                        step_size                                       5.00E-01

 Spin 1

 Number of electrons:                                                         84
 Number of occupied orbitals:                                                 84
 Number of molecular orbitals:                                               184

 Spin 2

 Number of electrons:                                                         84
 Number of occupied orbitals:                                                 84
 Number of molecular orbitals:                                               184

 Number of orbital functions:                                                555
 Number of independent orbital functions:                                    555

 Extrapolation method: initial_guess


 SCF WAVEFUNCTION OPTIMIZATION

  Step     Update method      Time    Convergence         Total energy    Change
  ------------------------------------------------------------------------------
     1 NoMix/Diag. 0.10E+00    4.0     0.46360545      -236.0468780821 -2.36E+02
     2 Broy./Diag. 0.10E+00    8.2     0.01164579      -229.6112879855  6.44E+00
     3 Broy./Diag. 0.10E+00    8.6     0.06254169      -234.0769612262 -4.47E+00
     4 Broy./Diag. 0.10E+00    8.7     0.00856780      -236.6801824671 -2.60E+00
     5 Broy./Diag. 0.10E+00    8.9     0.02465580      -237.3377372055 -6.58E-01
     6 Broy./Diag. 0.10E+00    9.1     0.00553108      -237.5999890465 -2.62E-01
     7 Broy./Diag. 0.10E+00    9.3     0.01296748      -237.6941436887 -9.42E-02
     8 Broy./Diag. 0.10E+00    9.6     0.00529900      -237.7725425080 -7.84E-02
     9 Broy./Diag. 0.10E+00    9.9     0.00355930      -237.8062954393 -3.38E-02
    10 Broy./Diag. 0.10E+00   10.3     0.00458862      -237.8351515065 -2.89E-02
    11 Broy./Diag. 0.10E+00   10.7     0.00630016      -237.8738308014 -3.87E-02
    12 Broy./Diag. 0.10E+00   11.1     0.00369583      -237.8808569225 -7.03E-03
    13 Broy./Diag. 0.10E+00   11.6     0.00089410      -237.8988323123 -1.80E-02
    14 Broy./Diag. 0.10E+00   12.1     0.00122340      -237.9152441917 -1.64E-02
    15 Broy./Diag. 0.10E+00   12.6     0.00032750      -237.9347482925 -1.95E-02
    16 Broy./Diag. 0.10E+00   13.2     0.00106976      -237.9468140084 -1.21E-02
    17 Broy./Diag. 0.10E+00   13.9     0.00055645      -237.9563296195 -9.52E-03
    18 Broy./Diag. 0.10E+00   13.8     0.00046314      -237.9622138128 -5.88E-03
    19 Broy./Diag. 0.10E+00   13.8     0.00029301      -237.9639717663 -1.76E-03
    20 Broy./Diag. 0.10E+00   13.9     0.00020409      -237.9651356346 -1.16E-03
    21 Broy./Diag. 0.10E+00   13.9     0.00042282      -237.9650237216  1.12E-04
    22 Broy./Diag. 0.10E+00   13.8     0.00035889      -237.9636112831  1.41E-03
    23 Broy./Diag. 0.10E+00   13.9     0.00009562      -237.9643297534 -7.18E-04
    24 Broy./Diag. 0.10E+00   13.9     0.00006575      -237.9675703825 -3.24E-03
    25 Broy./Diag. 0.10E+00   13.9     0.00004693      -237.9712627349 -3.69E-03
    26 Broy./Diag. 0.10E+00   13.9     0.00003484      -237.9724168120 -1.15E-03
    27 Broy./Diag. 0.10E+00   13.9     0.00003196      -237.9727407725 -3.24E-04
    28 Broy./Diag. 0.10E+00   13.9     0.00005256      -237.9735974705 -8.57E-04
    29 Broy./Diag. 0.10E+00   13.8     0.00005472      -237.9750161231 -1.42E-03
    30 Broy./Diag. 0.10E+00   13.9     0.00005838      -237.9762204819 -1.20E-03
    31 Broy./Diag. 0.10E+00   13.9     0.00006940      -237.9764890082 -2.69E-04
    32 Broy./Diag. 0.10E+00   13.9     0.00003777      -237.9764518880  3.71E-05
    33 Broy./Diag. 0.10E+00   13.9     0.00002856      -237.9762302212  2.22E-04
    34 Broy./Diag. 0.10E+00   14.0     0.00002090      -237.9759869427  2.43E-04
    35 Broy./Diag. 0.10E+00   14.0     0.00002254      -237.9758696611  1.17E-04
    36 Broy./Diag. 0.10E+00   14.0     0.00006440      -237.9758765209 -6.86E-06
    37 Broy./Diag. 0.10E+00   14.0     0.00006537      -237.9758804369 -3.92E-06
    38 Broy./Diag. 0.10E+00   14.1     0.00005642      -237.9759162521 -3.58E-05
    39 Broy./Diag. 0.10E+00   14.1     0.00001101      -237.9760079815 -9.17E-05
    40 Broy./Diag. 0.10E+00   14.1     0.00002291      -237.9761004866 -9.25E-05
    41 Broy./Diag. 0.10E+00   14.1     0.00001194      -237.9761710693 -7.06E-05
    42 Broy./Diag. 0.10E+00   14.1     0.00002902      -237.9762564894 -8.54E-05
    43 Broy./Diag. 0.10E+00   14.1     0.00002681      -237.9763440357 -8.75E-05
    44 Broy./Diag. 0.10E+00   14.2     0.00000487      -237.9763999810 -5.59E-05
    45 Broy./Diag. 0.10E+00   14.2     0.00001216      -237.9764304550 -3.05E-05
    46 Broy./Diag. 0.10E+00   14.2     0.00003216      -237.9764482073 -1.78E-05
    47 Broy./Diag. 0.10E+00   14.2     0.00001100      -237.9764558198 -7.61E-06
    48 Broy./Diag. 0.10E+00   14.2     0.00003282      -237.9764248561  3.10E-05
    49 Broy./Diag. 0.10E+00   14.1     0.00002358      -237.9763918874  3.30E-05
    50 Broy./Diag. 0.10E+00   14.1     0.00001542      -237.9763758640  1.60E-05
    51 Broy./Diag. 0.10E+00   14.2     0.00002724      -237.9763726269  3.24E-06
    52 Broy./Diag. 0.10E+00   14.2     0.00001447      -237.9763832493 -1.06E-05
    53 Broy./Diag. 0.10E+00   14.2     0.00000997      -237.9763901709 -6.92E-06
    54 Broy./Diag. 0.10E+00   14.2     0.00002637      -237.9763910053 -8.34E-07
    55 Broy./Diag. 0.10E+00   14.2     0.00002337      -237.9763913486 -3.43E-07
    56 Broy./Diag. 0.10E+00   14.2     0.00000557      -237.9763934380 -2.09E-06
    57 Broy./Diag. 0.10E+00   14.1     0.00000102      -237.9763925982  8.40E-07
    58 Broy./Diag. 0.10E+00   14.2     0.00004053      -237.9763880619  4.54E-06
    59 Broy./Diag. 0.10E+00   14.2     0.00001835      -237.9763899139 -1.85E-06
    60 Broy./Diag. 0.10E+00   14.2     0.00003557      -237.9763899661 -5.22E-08
    61 Broy./Diag. 0.10E+00   14.2     0.00002001      -237.9763861550  3.81E-06
    62 Broy./Diag. 0.10E+00   14.2     0.00000502      -237.9763854591  6.96E-07
    63 Broy./Diag. 0.10E+00   14.2     0.00000223      -237.9763857832 -3.24E-07
    64 Broy./Diag. 0.10E+00   14.2     0.00000139      -237.9763854154  3.68E-07
    65 Broy./Diag. 0.10E+00   14.2     0.00001843      -237.9763835000  1.92E-06
    66 Broy./Diag. 0.10E+00   14.2     0.00000172      -237.9763834280  7.19E-08
    67 Broy./Diag. 0.10E+00   14.2     0.00001019      -237.9763843117 -8.84E-07
    68 Broy./Diag. 0.10E+00   14.2     0.00001118      -237.9763825458  1.77E-06
    69 Broy./Diag. 0.10E+00   14.2     0.00000568      -237.9763823231  2.23E-07
    70 Broy./Diag. 0.10E+00   14.2     0.00001416      -237.9763845597 -2.24E-06
    71 Broy./Diag. 0.10E+00   14.1     0.00001025      -237.9763832956  1.26E-06
    72 Broy./Diag. 0.10E+00   14.2     0.00000478      -237.9763825880  7.08E-07
    73 Broy./Diag. 0.10E+00   14.2     0.00001503      -237.9763847523 -2.16E-06
    74 Broy./Diag. 0.10E+00   14.2     0.00000974      -237.9763834158  1.34E-06
    75 Broy./Diag. 0.10E+00   14.2     0.00000827      -237.9763849279 -1.51E-06
    76 Broy./Diag. 0.10E+00   14.2     0.00000159      -237.9763841382  7.90E-07
    77 Broy./Diag. 0.10E+00   14.2     0.00000957      -237.9763859786 -1.84E-06
    78 Broy./Diag. 0.10E+00   14.1     0.00000108      -237.9763852370  7.42E-07
    79 Broy./Diag. 0.10E+00   14.2     0.00000307      -237.9763849494  2.88E-07
    80 Broy./Diag. 0.10E+00   14.2     0.00000084      -237.9763847329  2.17E-07
    81 Broy./Diag. 0.10E+00   14.2     0.00000061      -237.9763849199 -1.87E-07
    82 Broy./Diag. 0.10E+00   14.2     0.00000211      -237.9763845380  3.82E-07
    83 Broy./Diag. 0.10E+00   14.2     0.00000152      -237.9763851131 -5.75E-07
    84 Broy./Diag. 0.10E+00   14.2     0.00000121      -237.9763845726  5.41E-07
    85 Broy./Diag. 0.10E+00   14.1     0.00000184      -237.9763857107 -1.14E-06
    86 Broy./Diag. 0.10E+00   14.2     0.00000353      -237.9763847700  9.41E-07
    87 Broy./Diag. 0.10E+00   14.2     0.00000176      -237.9763855165 -7.46E-07
    88 Broy./Diag. 0.10E+00   14.2     0.00000137      -237.9763854337  8.28E-08
    89 Broy./Diag. 0.10E+00   14.2     0.00000175      -237.9763854126  2.11E-08
    90 Broy./Diag. 0.10E+00   14.2     0.00000436      -237.9763841998  1.21E-06
    91 Broy./Diag. 0.10E+00   14.2     0.00000377      -237.9763840959  1.04E-07
    92 Broy./Diag. 0.10E+00   14.1     0.00000075      -237.9763843341 -2.38E-07
    93 Broy./Diag. 0.10E+00   14.2     0.00000178      -237.9763841877  1.46E-07
    94 Broy./Diag. 0.10E+00   14.2     0.00000616      -237.9763849883 -8.01E-07
    95 Broy./Diag. 0.10E+00   14.2     0.00001356      -237.9763838911  1.10E-06
    96 Broy./Diag. 0.10E+00   14.2     0.00004467      -237.9763808471  3.04E-06
    97 Broy./Diag. 0.10E+00   14.2     0.00001604      -237.9763786894  2.16E-06
    98 Broy./Diag. 0.10E+00   14.2     0.00001165      -237.9763773803  1.31E-06
    99 Broy./Diag. 0.10E+00   14.1     0.00001769      -237.9763782577 -8.77E-07
   100 Broy./Diag. 0.10E+00   14.2     0.00002169      -237.9763771040  1.15E-06
   101 Broy./Diag. 0.10E+00   14.2     0.00003218      -237.9763670606  1.00E-05
   102 Broy./Diag. 0.10E+00   14.2     0.00002359      -237.9763629954  4.07E-06
   103 Broy./Diag. 0.10E+00   14.2     0.00000375      -237.9763643201 -1.32E-06
   104 Broy./Diag. 0.10E+00   14.2     0.00001085      -237.9763620613  2.26E-06
   105 Broy./Diag. 0.10E+00   14.2     0.00000418      -237.9763630402 -9.79E-07
   106 Broy./Diag. 0.10E+00   14.1     0.00000606      -237.9763629681  7.21E-08
   107 Broy./Diag. 0.10E+00   14.2     0.00000172      -237.9763624762  4.92E-07
   108 Broy./Diag. 0.10E+00   14.2     0.00000023      -237.9763626257 -1.50E-07

  *** SCF run converged in   108 steps ***


  Electronic density on regular grids:       -168.0000000000        0.0000000000
  Core density on regular grids:              167.9999999999       -0.0000000001
  Total charge density on r-space grids:       -0.0000000001
  Total charge density g-space grids:          -0.0000000001

  Overlap energy of the core charge distribution:               0.00000836868231
  Self energy of the core charge distribution:               -560.07033292413882
  Core Hamiltonian energy:                                    172.45321010387991
  Hartree energy:                                             221.71959326804298
  Exchange-correlation energy:                                -72.03758598483039
  Dispersion energy:                                           -0.03772957574913
  Electronic entropic energy:                                  -0.00352588170687
  Fermi energy:                                                -0.18405452853059

  Total energy:                                              -237.97636262566982

  outer SCF iter =    1 RMS gradient =   0.23E-06 energy =       -237.9763626257
  outer SCF loop converged in   1 iterations or  108 steps


  Integrated absolute spin density  :                               0.0028398514
  WARNING: S**2 computation does not yet treat fractional occupied orbitals

 *** WARNING in qs_loc_utils.F:1500 :: User requested the calculation of ***
 *** the localized wavefunction but the section LOCALIZE was not         ***
 *** specified. Localization will not be performed!                      ***


 -------------------------------------------------------------------------------
 -                                                                             -
 -  BSSE CALCULATION         FRAGMENT CONF: 11        FRAGMENT SUBCONF: 01     -
 -                           CHARGE =     0           MULTIPLICITY =     0     -
 -                                                                             -
 -                 ATOM INDEX                              ATOM NAME           -
 -                 ----------                              ---------           -
 -                      1                                   C_ghost            -
 -                      2                                   C_ghost            -
 -                      3                                   C_ghost            -
 -                      4                                   C_ghost            -
 -                      5                                   C_ghost            -
 -                      6                                   C_ghost            -
 -                      7                                   C_ghost            -
 -                      8                                   C_ghost            -
 -                      9                                   C_ghost            -
 -                     10                                   C_ghost            -
 -                     11                                   C_ghost            -
 -                     12                                   C_ghost            -
 -                     13                                   C_ghost            -
 -                     14                                   C_ghost            -
 -                     15                                   C_ghost            -
 -                     16                                   C_ghost            -
 -                     17                                   C_ghost            -
 -                     18                                   C_ghost            -
 -                     19                                   C_ghost            -
 -                     20                                   C_ghost            -
 -                     21                                   C_ghost            -
 -                     22                                   C_ghost            -
 -                     23                                   C_ghost            -
 -                     24                                   C_ghost            -
 -                     25                                   C_ghost            -
 -                     26                                   C_ghost            -
 -                     27                                   C_ghost            -
 -                     28                                   C_ghost            -
 -                     29                                   C_ghost            -
 -                     30                                   C_ghost            -
 -                     31                                   C_ghost            -
 -                     32                                   C_ghost            -
 -                     33                                   C_ghost            -
 -                     34                                   C_ghost            -
 -                     35                                   C_ghost            -
 -                     36                                   C_ghost            -
 -                     37                                   C_ghost            -
 -                     38                                   C_ghost            -
 -                     39                                   C_ghost            -
 -                     40                                   C_ghost            -
 -                     41                                   C_ghost            -
 -                     42                                   C_ghost            -
 -                     43                                   Na                 -
 -------------------------------------------------------------------------------

 *******************************************************************************
 *******************************************************************************
 **                                                                           **
 **     #####                         ##              ##                      **
 **    ##   ##            ##          ##              ##                      **
 **   ##     ##                       ##            ######                    **
 **   ##     ##  ##   ##  ##   #####  ##  ##   ####   ##    #####    #####    **
 **   ##     ##  ##   ##  ##  ##      ## ##   ##      ##   ##   ##  ##   ##   **
 **   ##  ## ##  ##   ##  ##  ##      ####     ###    ##   ######   ######    **
 **    ##  ###   ##   ##  ##  ##      ## ##      ##   ##   ##       ##        **
 **     #######   #####   ##   #####  ##  ##  ####    ##    #####   ##        **
 **           ##                                                    ##        **
 **                                                                           **
 **                                                ... make the atoms dance   **
 **                                                                           **
 **            Copyright (C) by CP2K developers group (2000-2022)             **
 **                      J. Chem. Phys. 152, 194103 (2020)                    **
 **                                                                           **
 *******************************************************************************


 TOTAL NUMBERS AND MAXIMUM NUMBERS

  Total number of            - Atomic kinds:                                   2
                             - Atoms:                                         43
                             - Shell sets:                                    43
                             - Shells:                                       215
                             - Primitive Cartesian functions:                217
                             - Cartesian basis functions:                    597
                             - Spherical basis functions:                    555

  Maximum angular momentum of- Orbital basis functions:                        2
                             - Local part of the GTH pseudopotential:          2
                             - Non-local part of the GTH pseudopotential:      1


 SCF PARAMETERS         Density guess:                                    ATOMIC
                        --------------------------------------------------------
                        max_scf:                                             200
                        max_scf_history:                                       0
                        max_diis:                                              4
                        --------------------------------------------------------
                        eps_scf:                                        3.00E-07
                        eps_scf_history:                                0.00E+00
                        eps_diis:                                       1.00E-01
                        eps_eigval:                                     1.00E-05
                        --------------------------------------------------------
                        level_shift [a.u.]:                             0.000000
                        added MOs                                       100  100
                        --------------------------------------------------------
                        Mixing method:                            BROYDEN_MIXING
                                                charge density mixing in g-space
                        --------------------------------------------------------
                        Smear method:                                FERMI_DIRAC
                        Electronic temperature [K]:                        300.0
                        Electronic temperature [a.u.]:                  9.50E-04
                        Accuracy threshold:                             1.00E-10
                        --------------------------------------------------------
                        Outer loop SCF in use 
                        No variables optimised in outer loop
                        eps_scf                                         1.00E-06
                        max_scf                                              300
                        DIIS optimization
                        DIIS buffer length                                     3
                        step_size                                       5.00E-01

 Spin 1

 Number of electrons:                                                          5
 Number of occupied orbitals:                                                  5
 Number of molecular orbitals:                                               105

 Spin 2

 Number of electrons:                                                          4
 Number of occupied orbitals:                                                  4
 Number of molecular orbitals:                                               104

 Number of orbital functions:                                                555
 Number of independent orbital functions:                                    555

 Extrapolation method: initial_guess


 SCF WAVEFUNCTION OPTIMIZATION

  Step     Update method      Time    Convergence         Total energy    Change
  ------------------------------------------------------------------------------
     1 NoMix/Diag. 0.10E+00    3.9     0.41785453       -47.1708500789 -4.72E+01
     2 Broy./Diag. 0.10E+00    8.6     0.00711906       -47.1328220155  3.80E-02
     3 Broy./Diag. 0.10E+00    9.0     0.02482713       -47.1746574670 -4.18E-02
     4 Broy./Diag. 0.10E+00    9.1     0.00057197       -47.1650901496  9.57E-03
     5 Broy./Diag. 0.10E+00    9.3     0.14506749       -47.1773533959 -1.23E-02
     6 Broy./Diag. 0.10E+00    9.4     0.02469658       -46.6947620194  4.83E-01
     7 Broy./Diag. 0.10E+00    9.7     0.00682010       -46.6459018267  4.89E-02
     8 Broy./Diag. 0.10E+00    9.9     0.00802066       -46.6539256976 -8.02E-03
     9 Broy./Diag. 0.10E+00   10.3     0.04066021       -46.6770395792 -2.31E-02
    10 Broy./Diag. 0.10E+00   10.6     0.01846783       -46.7671720282 -9.01E-02
    11 Broy./Diag. 0.10E+00   11.0     0.01026392       -46.8207093497 -5.35E-02
    12 Broy./Diag. 0.10E+00   11.4     0.02732094       -46.8868240944 -6.61E-02
    13 Broy./Diag. 0.10E+00   11.9     0.02623276       -46.9996274206 -1.13E-01
    14 Broy./Diag. 0.10E+00   12.4     0.00466249       -47.0916102468 -9.20E-02
    15 Broy./Diag. 0.10E+00   12.9     0.01474244       -47.0790929884  1.25E-02
    16 Broy./Diag. 0.10E+00   13.5     0.01540490       -47.1465848794 -6.75E-02
    17 Broy./Diag. 0.10E+00   14.2     0.00163823       -47.2112159664 -6.46E-02
    18 Broy./Diag. 0.10E+00   14.2     0.00097436       -47.2120767434 -8.61E-04
    19 Broy./Diag. 0.10E+00   14.2     0.00644040       -47.2177675864 -5.69E-03
    20 Broy./Diag. 0.10E+00   14.2     0.00582887       -47.2470675919 -2.93E-02
    21 Broy./Diag. 0.10E+00   14.2     0.00029433       -47.2748525897 -2.78E-02
    22 Broy./Diag. 0.10E+00   14.1     0.00035120       -47.2567186514  1.81E-02
    23 Broy./Diag. 0.10E+00   14.2     0.01163602       -47.2311365376  2.56E-02
    24 Broy./Diag. 0.10E+00   14.2     0.00041436       -47.1913902178  3.97E-02
    25 Broy./Diag. 0.10E+00   14.2     0.00077833       -47.1883804761  3.01E-03
    26 Broy./Diag. 0.10E+00   14.2     0.00050344       -47.1841026834  4.28E-03
    27 Broy./Diag. 0.10E+00   14.2     0.00101072       -47.2010346060 -1.69E-02
    28 Broy./Diag. 0.10E+00   14.2     0.00034803       -47.2034026636 -2.37E-03
    29 Broy./Diag. 0.10E+00   14.1     0.00035367       -47.2091870102 -5.78E-03
    30 Broy./Diag. 0.10E+00   14.2     0.00103725       -47.2229741376 -1.38E-02
    31 Broy./Diag. 0.10E+00   14.2     0.00307781       -47.2267950411 -3.82E-03
    32 Broy./Diag. 0.10E+00   14.2     0.00550065       -47.2356954206 -8.90E-03
    33 Broy./Diag. 0.10E+00   14.2     0.00301286       -47.2626454633 -2.70E-02
    34 Broy./Diag. 0.10E+00   14.2     0.00050397       -47.2657684982 -3.12E-03
    35 Broy./Diag. 0.10E+00   14.1     0.00050205       -47.2584297008  7.34E-03
    36 Broy./Diag. 0.10E+00   14.1     0.00039017       -47.2542698141  4.16E-03
    37 Broy./Diag. 0.10E+00   14.2     0.00031079       -47.2566730301 -2.40E-03
    38 Broy./Diag. 0.10E+00   14.2     0.00007100       -47.2551655581  1.51E-03
    39 Broy./Diag. 0.10E+00   14.2     0.00011476       -47.2605825426 -5.42E-03
    40 Broy./Diag. 0.10E+00   14.2     0.00017318       -47.2635395646 -2.96E-03
    41 Broy./Diag. 0.10E+00   14.2     0.00133438       -47.2638769849 -3.37E-04
    42 Broy./Diag. 0.10E+00   14.2     0.00050540       -47.2732738515 -9.40E-03
    43 Broy./Diag. 0.10E+00   14.1     0.00008492       -47.2761425188 -2.87E-03
    44 Broy./Diag. 0.10E+00   14.2     0.00011229       -47.2760894570  5.31E-05
    45 Broy./Diag. 0.10E+00   14.2     0.00010504       -47.2716621252  4.43E-03
    46 Broy./Diag. 0.10E+00   14.2     0.00025170       -47.2594003855  1.23E-02
    47 Broy./Diag. 0.10E+00   14.1     0.00032249       -47.2425933656  1.68E-02
    48 Broy./Diag. 0.10E+00   14.1     0.00048895       -47.2179209897  2.47E-02
    49 Broy./Diag. 0.10E+00   14.1     0.00039926       -47.1946414282  2.33E-02
    50 Broy./Diag. 0.10E+00   14.1     0.00015415       -47.1845434223  1.01E-02
    51 Broy./Diag. 0.10E+00   14.1     0.00009384       -47.1799567282  4.59E-03
    52 Broy./Diag. 0.10E+00   14.1     0.00008247       -47.1760031637  3.95E-03
    53 Broy./Diag. 0.10E+00   14.1     0.00015862       -47.1704089914  5.59E-03
    54 Broy./Diag. 0.10E+00   14.1     0.00010297       -47.1665010033  3.91E-03
    55 Broy./Diag. 0.10E+00   14.1     0.00004986       -47.1657503690  7.51E-04
    56 Broy./Diag. 0.10E+00   14.1     0.00016535       -47.1669241187 -1.17E-03
    57 Broy./Diag. 0.10E+00   14.0     0.00006910       -47.1656976622  1.23E-03
    58 Broy./Diag. 0.10E+00   14.1     0.00001710       -47.1653841867  3.13E-04
    59 Broy./Diag. 0.10E+00   14.1     0.00002376       -47.1656601901 -2.76E-04
    60 Broy./Diag. 0.10E+00   14.1     0.00007079       -47.1655043531  1.56E-04
    61 Broy./Diag. 0.10E+00   14.1     0.00002091       -47.1652806030  2.24E-04
    62 Broy./Diag. 0.10E+00   14.1     0.00004058       -47.1650504392  2.30E-04
    63 Broy./Diag. 0.10E+00   14.1     0.00004584       -47.1651435351 -9.31E-05
    64 Broy./Diag. 0.10E+00   14.0     0.00007099       -47.1652892889 -1.46E-04
    65 Broy./Diag. 0.10E+00   14.1     0.00000846       -47.1654346456 -1.45E-04
    66 Broy./Diag. 0.10E+00   14.1     0.00007078       -47.1654199260  1.47E-05
    67 Broy./Diag. 0.10E+00   14.1     0.00003938       -47.1653362714  8.37E-05
    68 Broy./Diag. 0.10E+00   14.1     0.00006227       -47.1652153343  1.21E-04
    69 Broy./Diag. 0.10E+00   14.1     0.00006267       -47.1650646481  1.51E-04
    70 Broy./Diag. 0.10E+00   14.1     0.00002903       -47.1651824373 -1.18E-04
[...]
   148 Broy./Diag. 0.10E+00   14.2     0.04370878      -285.0476933413 -8.30E-04
   149 Broy./Diag. 0.10E+00   14.2     0.02876226      -285.0441361947  3.56E-03
   150 Broy./Diag. 0.10E+00   14.2     0.07475517      -285.0450756144 -9.39E-04
   151 Broy./Diag. 0.10E+00   14.1     0.03225396      -285.0084420793  3.66E-02
   152 Broy./Diag. 0.10E+00   14.2     0.16206034      -285.0225464869 -1.41E-02
   153 Broy./Diag. 0.10E+00   14.2     0.05265052      -284.9573084952  6.52E-02
   154 Broy./Diag. 0.10E+00   14.2     0.02041002      -284.9718912861 -1.46E-02
   155 Broy./Diag. 0.10E+00   14.2     0.01638821      -285.0098528697 -3.80E-02
   156 Broy./Diag. 0.10E+00   14.2     0.07038303      -285.0021821937  7.67E-03
   157 Broy./Diag. 0.10E+00   14.2     0.05475234      -285.0129091505 -1.07E-02
   158 Broy./Diag. 0.10E+00   14.2     0.09101921      -285.0216154512 -8.71E-03
   159 Broy./Diag. 0.10E+00   14.2     0.04553184      -285.0946353558 -7.30E-02
   160 Broy./Diag. 0.10E+00   14.2     0.01165625      -285.0446635823  5.00E-02
   161 Broy./Diag. 0.10E+00   14.2     0.02018539      -285.0600057618 -1.53E-02
   162 Broy./Diag. 0.10E+00   14.2     0.03181376      -285.0037751772  5.62E-02
   163 Broy./Diag. 0.10E+00   14.2     0.02059237      -285.0719442371 -6.82E-02
   164 Broy./Diag. 0.10E+00   14.2     0.03128665      -285.0546324144  1.73E-02
   165 Broy./Diag. 0.10E+00   14.2     0.01937575      -285.0692341384 -1.46E-02
   166 Broy./Diag. 0.10E+00   14.2     0.02021132      -285.1067818397 -3.75E-02
   167 Broy./Diag. 0.10E+00   14.2     0.10694654      -285.0651269256  4.17E-02
   168 Broy./Diag. 0.10E+00   14.2     0.04029587      -285.0504666491  1.47E-02
   169 Broy./Diag. 0.10E+00   14.2     0.01575095      -285.0530897928 -2.62E-03
   170 Broy./Diag. 0.10E+00   14.2     0.03656843      -285.0269533401  2.61E-02
   171 Broy./Diag. 0.10E+00   14.2     0.04747204      -284.9671837093  5.98E-02
   172 Broy./Diag. 0.10E+00   14.1     0.01273555      -284.9744149923 -7.23E-03
   173 Broy./Diag. 0.10E+00   14.2     0.01925504      -284.9528275211  2.16E-02
   174 Broy./Diag. 0.10E+00   14.2     0.02915923      -284.9483507851  4.48E-03
   175 Broy./Diag. 0.10E+00   14.2     0.03720996      -284.9800423825 -3.17E-02
   176 Broy./Diag. 0.10E+00   14.2     0.04850243      -285.0198267678 -3.98E-02
   177 Broy./Diag. 0.10E+00   14.2     0.02017182      -284.9523079568  6.75E-02
   178 Broy./Diag. 0.10E+00   14.2     0.06111820      -284.9310686611  2.12E-02
   179 Broy./Diag. 0.10E+00   14.1     0.04079640      -285.0049311933 -7.39E-02
   180 Broy./Diag. 0.10E+00   14.2     0.01221497      -285.0568227214 -5.19E-02
   181 Broy./Diag. 0.10E+00   14.2     0.02491346      -285.0409657061  1.59E-02
   182 Broy./Diag. 0.10E+00   14.2     0.02617328      -285.0541740171 -1.32E-02
   183 Broy./Diag. 0.10E+00   14.2     0.04245581      -285.0430624536  1.11E-02
   184 Broy./Diag. 0.10E+00   14.2     0.01917712      -285.0461701606 -3.11E-03
   185 Broy./Diag. 0.10E+00   14.2     0.07645232      -285.0106806745  3.55E-02
   186 Broy./Diag. 0.10E+00   14.1     0.02945402      -284.9802543063  3.04E-02
   187 Broy./Diag. 0.10E+00   14.2     0.02813432      -285.0031953028 -2.29E-02
   188 Broy./Diag. 0.10E+00   14.2     0.02219390      -284.9860802468  1.71E-02
   189 Broy./Diag. 0.10E+00   14.2     0.05416001      -284.9623224954  2.38E-02
   190 Broy./Diag. 0.10E+00   14.2     0.04901550      -285.0496623681 -8.73E-02
   191 Broy./Diag. 0.10E+00   14.2     0.06266858      -284.9690726889  8.06E-02
   192 Broy./Diag. 0.10E+00   14.2     0.02445205      -285.0401740386 -7.11E-02
   193 Broy./Diag. 0.10E+00   14.2     0.04193503      -285.0602769472 -2.01E-02
   194 Broy./Diag. 0.10E+00   14.2     0.01675151      -285.0696798791 -9.40E-03
   195 Broy./Diag. 0.10E+00   14.2     0.04156453      -285.0960613409 -2.64E-02
   196 Broy./Diag. 0.10E+00   14.2     0.02647495      -285.0876682577  8.39E-03
   197 Broy./Diag. 0.10E+00   14.2     0.01356633      -285.0660106320  2.17E-02
   198 Broy./Diag. 0.10E+00   14.2     0.01741285      -285.0597978425  6.21E-03
   199 Broy./Diag. 0.10E+00   14.2     0.02527071      -285.0208241927  3.90E-02
   200 Broy./Diag. 0.10E+00   14.2     0.04207269      -285.0396779548 -1.89E-02

  Leaving inner SCF loop after reaching   200 steps.


  Electronic density on regular grids:       -177.0000012816       -0.0000012816
  Core density on regular grids:              176.9999999999       -0.0000000001
  Total charge density on r-space grids:       -0.0000012817
  Total charge density g-space grids:          -0.0000012817

  Overlap energy of the core charge distribution:               0.00000836868231
  Self energy of the core charge distribution:               -656.67682311856515
  Core Hamiltonian energy:                                    203.60985200896721
  Hartree energy:                                             247.81389015521904
  Exchange-correlation energy:                                -79.74520010225876
  Dispersion energy:                                           -0.04068283049687
  Electronic entropic energy:                                  -0.00120019415631
  Fermi energy:                                                -0.13770764865754

  Total energy:                                              -285.03967795477308

  outer SCF iter =   58 RMS gradient =   0.42E-01 energy =       -285.0396779548
     1 Broy./Diag. 0.10E+00   20.8     0.24699832      -284.9737631335  6.59E-02
     2 Broy./Diag. 0.10E+00   14.2     0.24929561      -285.8035629805 -8.30E-01
     3 Broy./Diag. 0.10E+00   14.2     0.03801847      -285.0029067941  8.01E-01
     4 Broy./Diag. 0.10E+00   14.2     0.08524093      -284.9654961227  3.74E-02
     5 Broy./Diag. 0.10E+00   14.2     0.00686634      -285.0417657858 -7.63E-02
     6 Broy./Diag. 0.10E+00   14.2     0.00947452      -285.0500243902 -8.26E-03
     7 Broy./Diag. 0.10E+00   14.1     0.01743036      -285.0571629315 -7.14E-03
     8 Broy./Diag. 0.10E+00   14.2     0.01915411      -285.0685541500 -1.14E-02
     9 Broy./Diag. 0.10E+00   14.2     0.07761047      -285.0648899323  3.66E-03
    10 Broy./Diag. 0.10E+00   14.2     0.04661380      -285.1433869543 -7.85E-02
    11 Broy./Diag. 0.10E+00   14.2     0.02173813      -285.0932875485  5.01E-02
    12 Broy./Diag. 0.10E+00   14.2     0.04282977      -285.0662496743  2.70E-02
    13 Broy./Diag. 0.10E+00   14.2     0.00882431      -285.0237930397  4.25E-02
    14 Broy./Diag. 0.10E+00   14.2     0.00565598      -285.0205147238  3.28E-03
    15 Broy./Diag. 0.10E+00   14.2     0.00972232      -284.9930867309  2.74E-02
    16 Broy./Diag. 0.10E+00   14.2     0.01203655      -285.0273832757 -3.43E-02
    17 Broy./Diag. 0.10E+00   14.2     0.00737786      -285.0257836713  1.60E-03
    18 Broy./Diag. 0.10E+00   14.2     0.02826531      -285.0352200690 -9.44E-03
    19 Broy./Diag. 0.10E+00   14.2     0.01837983      -284.9983199726  3.69E-02
    20 Broy./Diag. 0.10E+00   14.2     0.03204275      -284.9924907244  5.83E-03
    21 Broy./Diag. 0.10E+00   14.1     0.05618931      -284.9245479890  6.79E-02
    22 Broy./Diag. 0.10E+00   14.2     0.00949310      -284.9370173387 -1.25E-02
    23 Broy./Diag. 0.10E+00   14.2     0.04629311      -284.9260564666  1.10E-02
    24 Broy./Diag. 0.10E+00   14.2     0.03720268      -285.0141645024 -8.81E-02
    25 Broy./Diag. 0.10E+00   14.2     0.00923817      -285.0264490527 -1.23E-02
    26 Broy./Diag. 0.10E+00   14.2     0.06328341      -285.0186090896  7.84E-03
    27 Broy./Diag. 0.10E+00   14.2     0.03862517      -285.0915167068 -7.29E-02
    28 Broy./Diag. 0.10E+00   14.2     0.02115282      -285.1264362619 -3.49E-02
    29 Broy./Diag. 0.10E+00   14.2     0.00307837      -285.1023390992  2.41E-02
    30 Broy./Diag. 0.10E+00   14.2     0.00818886      -285.1053035523 -2.96E-03
    31 Broy./Diag. 0.10E+00   14.2     0.00803085      -285.1143323622 -9.03E-03
    32 Broy./Diag. 0.10E+00   14.2     0.00967540      -285.1344936681 -2.02E-02
    33 Broy./Diag. 0.10E+00   14.2     0.06158384      -285.1353281367 -8.34E-04
    34 Broy./Diag. 0.10E+00   14.2     0.00549341      -285.0999891468  3.53E-02
    35 Broy./Diag. 0.10E+00   14.2     0.02513640      -285.0958761046  4.11E-03
    36 Broy./Diag. 0.10E+00   14.2     0.00947397      -285.0809781813  1.49E-02
    37 Broy./Diag. 0.10E+00   14.2     0.00633520      -285.0785956436  2.38E-03
    38 Broy./Diag. 0.10E+00   14.2     0.05187966      -285.0729912896  5.60E-03
    39 Broy./Diag. 0.10E+00   14.2     0.04044355      -285.0026085278  7.04E-02
    40 Broy./Diag. 0.10E+00   14.2     0.02918475      -284.9260003583  7.66E-02
    41 Broy./Diag. 0.10E+00   14.2     0.01832178      -284.9642160111 -3.82E-02
    42 Broy./Diag. 0.10E+00   14.2     0.02496069      -284.9989138206 -3.47E-02
    43 Broy./Diag. 0.10E+00   14.2     0.03478858      -285.0420572492 -4.31E-02
    44 Broy./Diag. 0.10E+00   14.2     0.03245373      -285.0242396577  1.78E-02
    45 Broy./Diag. 0.10E+00   14.2     0.00396422      -284.9937360883  3.05E-02
    46 Broy./Diag. 0.10E+00   14.2     0.03783274      -284.9932473299  4.89E-04
    47 Broy./Diag. 0.10E+00   14.2     0.08613791      -285.0380229450 -4.48E-02
    48 Broy./Diag. 0.10E+00   14.2     0.03282316      -285.1014203482 -6.34E-02
    49 Broy./Diag. 0.10E+00   14.2     0.02264701      -285.0752724274  2.61E-02
    50 Broy./Diag. 0.10E+00   14.2     0.00712444      -285.0871246513 -1.19E-02
    51 Broy./Diag. 0.10E+00   14.2     0.02102017      -285.0947555520 -7.63E-03
    52 Broy./Diag. 0.10E+00   14.2     0.02159830      -285.0833570354  1.14E-02
    53 Broy./Diag. 0.10E+00   14.2     0.00488367      -285.0980401302 -1.47E-02
    54 Broy./Diag. 0.10E+00   14.2     0.00535321      -285.0919768473  6.06E-03
    55 Broy./Diag. 0.10E+00   14.2     0.07328110      -285.1006126399 -8.64E-03
    56 Broy./Diag. 0.10E+00   14.2     0.09221107      -285.1483349973 -4.77E-02
    57 Broy./Diag. 0.10E+00   14.2     0.00981255      -285.0873581350  6.10E-02
    58 Broy./Diag. 0.10E+00   14.2     0.01880998      -285.0700812585  1.73E-02
    59 Broy./Diag. 0.10E+00   14.2     0.01002200      -285.0486811575  2.14E-02
    60 Broy./Diag. 0.10E+00   14.2     0.04938969      -285.0419578992  6.72E-03
    61 Broy./Diag. 0.10E+00   14.2     0.05804508      -285.0028991653  3.91E-02
    62 Broy./Diag. 0.10E+00   14.2     0.00658413      -285.0710431240 -6.81E-02
    63 Broy./Diag. 0.10E+00   14.2     0.02318019      -285.0781274087 -7.08E-03
    64 Broy./Diag. 0.10E+00   14.2     0.01649546      -285.0525274476  2.56E-02
    65 Broy./Diag. 0.10E+00   14.2     0.02144773      -285.0439269543  8.60E-03
    66 Broy./Diag. 0.10E+00   14.2     0.05793400      -285.0385110340  5.42E-03
    67 Broy./Diag. 0.10E+00   14.2     0.01811757      -284.9408929003  9.76E-02
    68 Broy./Diag. 0.10E+00   14.2     0.00962790      -284.9091135914  3.18E-02
    69 Broy./Diag. 0.10E+00   14.2     0.02273961      -284.9139233141 -4.81E-03
    70 Broy./Diag. 0.10E+00   14.2     0.00614896      -284.9374597233 -2.35E-02
    71 Broy./Diag. 0.10E+00   14.2     0.03753439      -284.9351734425  2.29E-03
    72 Broy./Diag. 0.10E+00   14.2     0.03387084      -284.9235891369  1.16E-02
    73 Broy./Diag. 0.10E+00   14.2     0.02483522      -284.9078151042  1.58E-02
    74 Broy./Diag. 0.10E+00   14.2     0.00196297      -284.9065654647  1.25E-03
    75 Broy./Diag. 0.10E+00   14.2     0.02262332      -284.9018374063  4.73E-03
    76 Broy./Diag. 0.10E+00   14.2     0.00537885      -284.8842982307  1.75E-02
    77 Broy./Diag. 0.10E+00   14.1     0.03454403      -284.8759230178  8.38E-03
    78 Broy./Diag. 0.10E+00   14.2     0.01199680      -284.8906680844 -1.47E-02
    79 Broy./Diag. 0.10E+00   14.2     0.03368971      -284.8701363808  2.05E-02
    80 Broy./Diag. 0.10E+00   14.2     0.00596657      -284.9035836762 -3.34E-02
    81 Broy./Diag. 0.10E+00   14.2     0.00462737      -284.9133338365 -9.75E-03
    82 Broy./Diag. 0.10E+00   14.2     0.00977681      -284.9006600107  1.27E-02
    83 Broy./Diag. 0.10E+00   14.2     0.01945200      -284.8922473014  8.41E-03
    84 Broy./Diag. 0.10E+00   14.2     0.00866296      -284.8949291549 -2.68E-03
    85 Broy./Diag. 0.10E+00   14.2     0.00711387      -284.9068326028 -1.19E-02
    86 Broy./Diag. 0.10E+00   14.2     0.03425995      -284.8901099385  1.67E-02
    87 Broy./Diag. 0.10E+00   14.2     0.02114010      -285.0041786774 -1.14E-01
    88 Broy./Diag. 0.10E+00   14.2     0.02034439      -285.0211625921 -1.70E-02
    89 Broy./Diag. 0.10E+00   14.2     0.00473240      -285.0400630398 -1.89E-02
    90 Broy./Diag. 0.10E+00   14.2     0.01994361      -285.0490629298 -9.00E-03
    91 Broy./Diag. 0.10E+00   14.2     0.01477396      -285.0445828576  4.48E-03
    92 Broy./Diag. 0.10E+00   14.2     0.00840504      -285.0677271714 -2.31E-02
    93 Broy./Diag. 0.10E+00   14.2     0.01468496      -285.0644078666  3.32E-03
    94 Broy./Diag. 0.10E+00   14.2     0.01020326      -285.0510084294  1.34E-02
    95 Broy./Diag. 0.10E+00   14.2     0.00374148      -285.0377603179  1.32E-02
    96 Broy./Diag. 0.10E+00   14.2     0.01101316      -285.0368997995  8.61E-04
    97 Broy./Diag. 0.10E+00   14.2     0.04055014      -285.0422665335 -5.37E-03
    98 Broy./Diag. 0.10E+00   14.2     0.05670885      -284.9777190384  6.45E-02
    99 Broy./Diag. 0.10E+00   14.4     0.04152112      -284.9687901228  8.93E-03
   100 Broy./Diag. 0.10E+00   14.2     0.00665694      -284.9115328353  5.73E-02
   101 Broy./Diag. 0.10E+00   14.2     0.00165389      -284.9286851702 -1.72E-02
   102 Broy./Diag. 0.10E+00   14.2     0.02424129      -284.9233771797  5.31E-03
   103 Broy./Diag. 0.10E+00   14.2     0.04033230      -284.9417520711 -1.84E-02
   104 Broy./Diag. 0.10E+00   14.2     0.03222052      -284.9229015378  1.89E-02
   105 Broy./Diag. 0.10E+00   14.2     0.03752598      -284.9146178598  8.28E-03
   106 Broy./Diag. 0.10E+00   14.2     0.00950447      -284.9668505008 -5.22E-02
   107 Broy./Diag. 0.10E+00   14.2     0.02249901      -284.9582848595  8.57E-03
   108 Broy./Diag. 0.10E+00   14.2     0.01831104      -284.9784239525 -2.01E-02
   109 Broy./Diag. 0.10E+00   14.2     0.01273167      -284.9806091816 -2.19E-03
   110 Broy./Diag. 0.10E+00   14.2     0.02458437      -284.9761455436  4.46E-03
   111 Broy./Diag. 0.10E+00   14.2     0.07617515      -285.0141037221 -3.80E-02
   112 Broy./Diag. 0.10E+00   14.2     0.01087772      -285.0533091468 -3.92E-02
   113 Broy./Diag. 0.10E+00   14.2     0.00871520      -285.0325577734  2.08E-02
   114 Broy./Diag. 0.10E+00   14.2     0.02139020      -285.0249698206  7.59E-03
   115 Broy./Diag. 0.10E+00   14.2     0.00346108      -285.0192985940  5.67E-03
   116 Broy./Diag. 0.10E+00   14.2     0.04429076      -285.0040219545  1.53E-02
   117 Broy./Diag. 0.10E+00   14.2     0.05442591      -284.9586801093  4.53E-02
   118 Broy./Diag. 0.10E+00   14.2     0.03598804      -284.9411022096  1.76E-02
   119 Broy./Diag. 0.10E+00   14.2     0.00385333      -284.9526558418 -1.16E-02
   120 Broy./Diag. 0.10E+00   14.2     0.11349258      -284.9527879901 -1.32E-04
   121 Broy./Diag. 0.10E+00   14.2     0.00524561      -285.0343821394 -8.16E-02
   122 Broy./Diag. 0.10E+00   14.2     0.06458714      -285.0391250037 -4.74E-03
   123 Broy./Diag. 0.10E+00   14.2     0.01215365      -285.0986550224 -5.95E-02
   124 Broy./Diag. 0.10E+00   14.2     0.02297192      -285.0935844475  5.07E-03
   125 Broy./Diag. 0.10E+00   14.2     0.01182622      -285.0879124741  5.67E-03
   126 Broy./Diag. 0.10E+00   14.2     0.01016950      -285.1005942746 -1.27E-02
   127 Broy./Diag. 0.10E+00   14.2     0.03867973      -285.0795483408  2.10E-02
   128 Broy./Diag. 0.10E+00   14.2     0.03008711      -285.0784844730  1.06E-03
   129 Broy./Diag. 0.10E+00   14.2     0.03309588      -285.0796379808 -1.15E-03
   130 Broy./Diag. 0.10E+00   14.2     0.01386709      -285.0563269793  2.33E-02
   131 Broy./Diag. 0.10E+00   14.2     0.01469298      -285.0024557927  5.39E-02
   132 Broy./Diag. 0.10E+00   14.2     0.01896572      -285.0178878517 -1.54E-02
   133 Broy./Diag. 0.10E+00   14.2     0.01328801      -285.0379874481 -2.01E-02
   134 Broy./Diag. 0.10E+00   14.2     0.09658850      -285.0308328298  7.15E-03
   135 Broy./Diag. 0.10E+00   14.2     0.02431433      -285.0876801274 -5.68E-02
   136 Broy./Diag. 0.10E+00   14.2     0.09515761      -285.0725527506  1.51E-02
   137 Broy./Diag. 0.10E+00   14.2     0.05599332      -285.0269892301  4.56E-02
   138 Broy./Diag. 0.10E+00   14.2     0.06631144      -284.9572597057  6.97E-02
   139 Broy./Diag. 0.10E+00   14.2     0.02698819      -285.0277241317 -7.05E-02
   140 Broy./Diag. 0.10E+00   14.2     0.01931320      -285.0582408380 -3.05E-02
   141 Broy./Diag. 0.10E+00   14.2     0.01679378      -285.0448742979  1.34E-02
   142 Broy./Diag. 0.10E+00   14.2     0.01704380      -285.0649937572 -2.01E-02
   143 Broy./Diag. 0.10E+00   14.2     0.09811077      -285.0620874166  2.91E-03
   144 Broy./Diag. 0.10E+00   14.2     0.08519186      -285.1074798541 -4.54E-02
   145 Broy./Diag. 0.10E+00   14.2     0.05330436      -285.0311455440  7.63E-02
   146 Broy./Diag. 0.10E+00   14.2     0.03713811      -285.0772617288 -4.61E-02
   147 Broy./Diag. 0.10E+00   14.2     0.05820731      -285.0331149325  4.41E-02
   148 Broy./Diag. 0.10E+00   14.2     0.03879313      -285.0242107675  8.90E-03
   149 Broy./Diag. 0.10E+00   14.2     0.03546517      -285.0753538021 -5.11E-02
   150 Broy./Diag. 0.10E+00   14.2     0.01039666      -285.0302707729  4.51E-02
   151 Broy./Diag. 0.10E+00   14.2     0.02904875      -285.0172103772  1.31E-02
   152 Broy./Diag. 0.10E+00   14.2     0.01622583      -285.0582572550 -4.10E-02
   153 Broy./Diag. 0.10E+00   14.2     0.00725727      -285.0754577680 -1.72E-02
   154 Broy./Diag. 0.10E+00   14.2     0.02797816      -285.0782022664 -2.74E-03
   155 Broy./Diag. 0.10E+00   14.2     0.02586165      -285.1002026812 -2.20E-02
   156 Broy./Diag. 0.10E+00   14.2     0.09327543      -285.1140613150 -1.39E-02
   157 Broy./Diag. 0.10E+00   14.2     0.04101410      -285.0575673722  5.65E-02
   158 Broy./Diag. 0.10E+00   14.2     0.03448046      -285.0775879377 -2.00E-02
   159 Broy./Diag. 0.10E+00   14.2     0.00368525      -285.0619105290  1.57E-02
   160 Broy./Diag. 0.10E+00   14.2     0.00891225      -285.0696248822 -7.71E-03
   161 Broy./Diag. 0.10E+00   14.2     0.04555369      -285.0685954813  1.03E-03
   162 Broy./Diag. 0.10E+00   14.2     0.01317637      -285.0267936226  4.18E-02
   163 Broy./Diag. 0.10E+00   14.2     0.01754748      -285.0203845198  6.41E-03
   164 Broy./Diag. 0.10E+00   14.2     0.02447699      -285.0033799645  1.70E-02
   165 Broy./Diag. 0.10E+00   14.2     0.02335822      -285.0186872952 -1.53E-02
   166 Broy./Diag. 0.10E+00   14.2     0.02408675      -284.9608730062  5.78E-02
   167 Broy./Diag. 0.10E+00   14.2     0.02782860      -285.0025036390 -4.16E-02
   168 Broy./Diag. 0.10E+00   14.2     0.01649552      -284.9971364939  5.37E-03
   169 Broy./Diag. 0.10E+00   14.2     0.02835674      -284.9777189660  1.94E-02
   170 Broy./Diag. 0.10E+00   14.2     0.04862219      -284.9440530479  3.37E-02
   171 Broy./Diag. 0.10E+00   14.2     0.00945139      -284.9734206186 -2.94E-02
   172 Broy./Diag. 0.10E+00   14.2     0.08248718      -284.9714636743  1.96E-03
   173 Broy./Diag. 0.10E+00   14.2     0.03811736      -285.0280440975 -5.66E-02
   174 Broy./Diag. 0.10E+00   14.2     0.02976113      -285.0271160163  9.28E-04
   175 Broy./Diag. 0.10E+00   14.2     0.01262325      -285.0309111488 -3.80E-03
   176 Broy./Diag. 0.10E+00   14.2     0.05006774      -285.0651450455 -3.42E-02
   177 Broy./Diag. 0.10E+00   14.2     0.00530553      -285.0141628824  5.10E-02
   178 Broy./Diag. 0.10E+00   14.2     0.02317599      -285.0222961043 -8.13E-03
   179 Broy./Diag. 0.10E+00   14.2     0.01625217      -285.0405583793 -1.83E-02
