 DBCSR| Multiplication driver                                               XSMM
 DBCSR| Multrec recursion limit                                              512
 DBCSR| Multiplication stack size                                           1000
 DBCSR| Maximum elements for images                                    UNLIMITED
 DBCSR| Multiplicative factor virtual images                                   1
 DBCSR| Multiplication size stacks                                             3
 DBCSR| Number of 3D layers                                               SINGLE
 DBCSR| Use MPI memory allocation                                              T
 DBCSR| Use RMA algorithm                                                      F
 DBCSR| Use Communication thread                                               T
 DBCSR| Communication thread load                                             87


  **** **** ******  **  PROGRAM STARTED AT               2024-07-19 11:10:01.437
 ***** ** ***  *** **   PROGRAM STARTED ON                            sebnode131
 **    ****   ******    PROGRAM STARTED BY                                luehrs
 ***** **    ** ** **   PROGRAM PROCESS ID                                318726
  **** **  *******  **  PROGRAM STARTED IN /home/luehrs/PhD/Sodium_batteries/Sod
                                           ium-graphene-edge/Armchair_2/No_hydro
                                           gen

 CP2K| version string:                    CP2K version 7.0 (Development Version)
 CP2K| source code revision number:                                             
 CP2K| cp2kflags: libint fftw3 libxc parallel mpi3 scalapack xsmm libderiv_max_a
 CP2K|            m1=8 libint_max_am=9 max_contr=4
 CP2K| is freely available from                            https://www.cp2k.org/
 CP2K| Program compiled at                         Sun Jun 24 14:37:16 CEST 2018
 CP2K| Program compiled on                                            sebstorage
 CP2K| Program compiled for                                Linux-x86-64-gfortran
 CP2K| Data directory path    /home/brehm/Software_Batchnode/2018/Source/cp2k_18
 CP2K| Input file name                                        input.armchair.inp

 GLOBAL| Force Environment number                                              1
 GLOBAL| Basis set file name                                      ./BASIS_MOLOPT
 GLOBAL| Potential file name                                    ./GTH_POTENTIALS
 GLOBAL| MM Potential file name                                     MM_POTENTIAL
 GLOBAL| Coordinate file name           ./graphene_armchair_no_hydrogen_relaxed.
 GLOBAL| Method name                                                        CP2K
 GLOBAL| Project name                                     graphene_armchair_BSSE
 GLOBAL| Preferred FFT library                                             FFTW3
 GLOBAL| Preferred diagonalization lib.                                       SL
 GLOBAL| Run type                                                           BSSE
 GLOBAL| All-to-all communication in single precision                          F
 GLOBAL| FFTs using library dependent lengths                                  F
 GLOBAL| Global print level                                               MEDIUM
 GLOBAL| Total number of message passing processes                            16
 GLOBAL| Number of threads for this process                                    1
 GLOBAL| This output is from process                                           0
 GLOBAL| CPU model name :  AMD EPYC 7513 32-Core Processor

 MEMORY| system memory details [Kb]
 MEMORY|                        rank 0           min           max       average
 MEMORY| MemTotal            131901556     131901556     131901556     131901556
 MEMORY| MemFree              44297480      44297480      44297480      44297480
 MEMORY| Buffers                114700        114700        114700        114700
 MEMORY| Cached               35444812      35444808      35444812      35444808
 MEMORY| Slab                  1477900       1477900       1477900       1477900
 MEMORY| SReclaimable           646856        646856        646856        646856
 MEMORY| MemLikelyFree        80503848      80503844      80503848      80503844


 *** Fundamental physical constants (SI units) ***

 *** Literature: B. J. Mohr and B. N. Taylor,
 ***             CODATA recommended values of the fundamental physical
 ***             constants: 2006, Web Version 5.1
 ***             http://physics.nist.gov/constants

 Speed of light in vacuum [m/s]                             2.99792458000000E+08
 Magnetic constant or permeability of vacuum [N/A**2]       1.25663706143592E-06
 Electric constant or permittivity of vacuum [F/m]          8.85418781762039E-12
 Planck constant (h) [J*s]                                  6.62606896000000E-34
 Planck constant (h-bar) [J*s]                              1.05457162825177E-34
 Elementary charge [C]                                      1.60217648700000E-19
 Electron mass [kg]                                         9.10938215000000E-31
 Electron g factor [ ]                                     -2.00231930436220E+00
 Proton mass [kg]                                           1.67262163700000E-27
 Fine-structure constant                                    7.29735253760000E-03
 Rydberg constant [1/m]                                     1.09737315685270E+07
 Avogadro constant [1/mol]                                  6.02214179000000E+23
 Boltzmann constant [J/K]                                   1.38065040000000E-23
 Atomic mass unit [kg]                                      1.66053878200000E-27
 Bohr radius [m]                                            5.29177208590000E-11

 *** Conversion factors ***

 [u] -> [a.u.]                                              1.82288848426455E+03
 [Angstrom] -> [Bohr] = [a.u.]                              1.88972613288564E+00
 [a.u.] = [Bohr] -> [Angstrom]                              5.29177208590000E-01
 [a.u.] -> [s]                                              2.41888432650478E-17
 [a.u.] -> [fs]                                             2.41888432650478E-02
 [a.u.] -> [J]                                              4.35974393937059E-18
 [a.u.] -> [N]                                              8.23872205491840E-08
 [a.u.] -> [K]                                              3.15774647902944E+05
 [a.u.] -> [kJ/mol]                                         2.62549961709828E+03
 [a.u.] -> [kcal/mol]                                       6.27509468713739E+02
 [a.u.] -> [Pa]                                             2.94210107994716E+13
 [a.u.] -> [bar]                                            2.94210107994716E+08
 [a.u.] -> [atm]                                            2.90362800883016E+08
 [a.u.] -> [eV]                                             2.72113838565563E+01
 [a.u.] -> [Hz]                                             6.57968392072181E+15
 [a.u.] -> [1/cm] (wave numbers)                            2.19474631370540E+05
 [a.u./Bohr**2] -> [1/cm]                                   5.14048714338585E+03
 

 CELL_TOP| Volume [angstrom^3]:                                        15412.800
 CELL_TOP| Vector a [angstrom    12.844     0.000     0.000    |a| =      12.844
 CELL_TOP| Vector b [angstrom     0.000    30.000     0.000    |b| =      30.000
 CELL_TOP| Vector c [angstrom     0.000     0.000    40.000    |c| =      40.000
 CELL_TOP| Angle (b,c), alpha [degree]:                                   90.000
 CELL_TOP| Angle (a,c), beta  [degree]:                                   90.000
 CELL_TOP| Angle (a,b), gamma [degree]:                                   90.000
 CELL_TOP| Requested initial symmetry:                                 TRICLINIC
 CELL_TOP| Numerically orthorhombic:                                         YES

 GENERATE|  Preliminary Number of Bonds generated:                             0
 GENERATE|  Achieved consistency in connectivity generation.

 CELL| Volume [angstrom^3]:                                            15412.800
 CELL| Vector a [angstrom]:      12.844     0.000     0.000    |a| =      12.844
 CELL| Vector b [angstrom]:       0.000    30.000     0.000    |b| =      30.000
 CELL| Vector c [angstrom]:       0.000     0.000    40.000    |c| =      40.000
 CELL| Angle (b,c), alpha [degree]:                                       90.000
 CELL| Angle (a,c), beta  [degree]:                                       90.000
 CELL| Angle (a,b), gamma [degree]:                                       90.000
 CELL| Requested initial symmetry:                                     TRICLINIC
 CELL| Numerically orthorhombic:                                             YES

 CELL_REF| Volume [angstrom^3]:                                        15412.800
 CELL_REF| Vector a [angstrom    12.844     0.000     0.000    |a| =      12.844
 CELL_REF| Vector b [angstrom     0.000    30.000     0.000    |b| =      30.000
 CELL_REF| Vector c [angstrom     0.000     0.000    40.000    |c| =      40.000
 CELL_REF| Angle (b,c), alpha [degree]:                                   90.000
 CELL_REF| Angle (a,c), beta  [degree]:                                   90.000
 CELL_REF| Angle (a,b), gamma [degree]:                                   90.000
 CELL_REF| Requested initial symmetry:                                 TRICLINIC
 CELL_REF| Numerically orthorhombic:                                         YES

 *******************************************************************************
 *******************************************************************************
 **                                                                           **
 **     #####                         ##              ##                      **
 **    ##   ##            ##          ##              ##                      **
 **   ##     ##                       ##            ######                    **
 **   ##     ##  ##   ##  ##   #####  ##  ##   ####   ##    #####    #####    **
 **   ##     ##  ##   ##  ##  ##      ## ##   ##      ##   ##   ##  ##   ##   **
 **   ##  ## ##  ##   ##  ##  ##      ####     ###    ##   ######   ######    **
 **    ##  ###   ##   ##  ##  ##      ## ##      ##   ##   ##       ##        **
 **     #######   #####   ##   #####  ##  ##  ####    ##    #####   ##        **
 **           ##                                                    ##        **
 **                                                                           **
 **                                                ... make the atoms dance   **
 **                                                                           **
 **            Copyright (C) by CP2K developers group (2000 - 2018)           **
 **                                                                           **
 *******************************************************************************

 DFT| Spin unrestricted (spin-polarized) Kohn-Sham calculation               UKS
 DFT| Multiplicity                                                             1
 DFT| Number of spin states                                                    2
 DFT| Charge                                                                   1
 DFT| Self-interaction correction (SIC)                                       NO
 DFT| Cutoffs: density                                              1.000000E-10
 DFT|          gradient                                             1.000000E-10
 DFT|          tau                                                  1.000000E-10
 DFT|          cutoff_smoothing_range                               0.000000E+00
 DFT| XC density smoothing                                                  NONE
 DFT| XC derivatives                                              SPLINE2_SMOOTH
 FUNCTIONAL| ROUTINE=NEW
 FUNCTIONAL| BECKE88:
 FUNCTIONAL| A. Becke, Phys. Rev. A 38, 3098 (1988) {LSD version}               
 FUNCTIONAL| LYP:
 FUNCTIONAL| C. Lee, W. Yang, R.G. Parr, Phys. Rev. B, 37, 785 (1988) {LSD versi
 FUNCTIONAL| on}                                                                
 vdW POTENTIAL|                                                   Pair Potential
 vdW POTENTIAL|          DFT-D3 (Version 3.1)
 vdW POTENTIAL|          Potential Form: S. Grimme et al, JCP 132: 154104 (2010)
 vdW POTENTIAL|          Zero Damping
 vdW POTENTIAL|          Cutoff Radius [Bohr]:                             20.00
 vdW POTENTIAL|          s6 Scaling Factor:                               1.0000
 vdW POTENTIAL|          sr6 Scaling Factor:                              1.0940
 vdW POTENTIAL|          s8 Scaling Factor:                               1.6820
 vdW POTENTIAL|          Cutoff for CN calculation:                   0.1000E-05

 QS| Method:                                                                 GPW
 QS| Density plane wave grid type                        NON-SPHERICAL FULLSPACE
 QS| Number of grid levels:                                                    4
 QS| Density cutoff [a.u.]:                                                250.0
 QS| Multi grid cutoff [a.u.]: 1) grid level                               250.0
 QS|                           2) grid level                                83.3
 QS|                           3) grid level                                27.8
 QS|                           4) grid level                                 9.3
 QS| Grid level progression factor:                                          3.0
 QS| Relative density cutoff [a.u.]:                                        20.0
 QS| Consistent realspace mapping and integration 
 QS| Interaction thresholds: eps_pgf_orb:                                1.0E-06
 QS|                         eps_filter_matrix:                          0.0E+00
 QS|                         eps_core_charge:                            1.0E-14
 QS|                         eps_rho_gspace:                             1.0E-12
 QS|                         eps_rho_rspace:                             1.0E-12
 QS|                         eps_gvg_rspace:                             1.0E-06
 QS|                         eps_ppl:                                    1.0E-02
 QS|                         eps_ppnl:                                   1.0E-08


 ATOMIC KIND INFORMATION

  1. Atomic kind: C                                     Number of atoms:      42

     Orbital Basis Set                                        DZVP-MOLOPT-SR-GTH

       Number of orbital shell sets:                                           1
       Number of orbital shells:                                               5
       Number of primitive Cartesian functions:                                5
       Number of Cartesian basis functions:                                   14
       Number of spherical basis functions:                                   13
       Norm type:                                                              2

       Normalised Cartesian orbitals:

                        Set   Shell   Orbital            Exponent    Coefficient

                          1       1    2s                5.605331       0.322515
                                                         2.113016       0.213043
                                                         0.769911      -0.209686
                                                         0.348157      -0.219794
                                                         0.128212      -0.022789

                          1       2    3s                5.605331       0.552234
                                                         2.113016       0.082072
                                                         0.769911       0.007843
                                                         0.348157       0.136893
                                                         0.128212       0.074283

                          1       3    3px               5.605331      -0.703879
                                                         2.113016      -0.642521
                                                         0.769911      -0.374851
                                                         0.348157      -0.139743
                                                         0.128212      -0.027849
                          1       3    3py               5.605331      -0.703879
                                                         2.113016      -0.642521
                                                         0.769911      -0.374851
                                                         0.348157      -0.139743
                                                         0.128212      -0.027849
                          1       3    3pz               5.605331      -0.703879
                                                         2.113016      -0.642521
                                                         0.769911      -0.374851
                                                         0.348157      -0.139743
                                                         0.128212      -0.027849

                          1       4    4px               5.605331      -0.480376
                                                         2.113016      -0.552894
                                                         0.769911      -0.316145
                                                         0.348157       0.210505
                                                         0.128212       0.076095
                          1       4    4py               5.605331      -0.480376
                                                         2.113016      -0.552894
                                                         0.769911      -0.316145
                                                         0.348157       0.210505
                                                         0.128212       0.076095
                          1       4    4pz               5.605331      -0.480376
                                                         2.113016      -0.552894
                                                         0.769911      -0.316145
                                                         0.348157       0.210505
                                                         0.128212       0.076095

                          1       5    4dx2              5.605331       0.640026
                                                         2.113016       0.274300
                                                         0.769911       0.446711
                                                         0.348157       0.028674
                                                         0.128212       0.029790
                          1       5    4dxy              5.605331       1.108557
                                                         2.113016       0.475102
                                                         0.769911       0.773726
                                                         0.348157       0.049666
                                                         0.128212       0.051599
                          1       5    4dxz              5.605331       1.108557
                                                         2.113016       0.475102
                                                         0.769911       0.773726
                                                         0.348157       0.049666
                                                         0.128212       0.051599
                          1       5    4dy2              5.605331       0.640026
                                                         2.113016       0.274300
                                                         0.769911       0.446711
                                                         0.348157       0.028674
                                                         0.128212       0.029790
                          1       5    4dyz              5.605331       1.108557
                                                         2.113016       0.475102
                                                         0.769911       0.773726
                                                         0.348157       0.049666
                                                         0.128212       0.051599
                          1       5    4dz2              5.605331       0.640026
                                                         2.113016       0.274300
                                                         0.769911       0.446711
                                                         0.348157       0.028674
                                                         0.128212       0.029790

     GTH Potential information for                                    GTH-PBE-q4

       Description:                       Goedecker-Teter-Hutter pseudopotential
                                           Goedecker et al., PRB 54, 1703 (1996)
                                          Hartwigsen et al., PRB 58, 3641 (1998)
                                                      Krack, TCA 114, 145 (2005)

       Gaussian exponent of the core charge distribution:               4.364419
       Electronic configuration (s p d ...):                               2   2

       Parameters of the local part of the GTH pseudopotential:

                          rloc        C1          C2          C3          C4
                        0.338471   -8.803674    1.339211

       Parameters of the non-local part of the GTH pseudopotential:

                   l      r(l)      h(i,j,l)

                   0    0.302576    9.622487
                   1    0.291507

  2. Atomic kind: Na                                    Number of atoms:       1

     Orbital Basis Set                                        DZVP-MOLOPT-SR-GTH

       Number of orbital shell sets:                                           1
       Number of orbital shells:                                               5
       Number of primitive Cartesian functions:                                7
       Number of Cartesian basis functions:                                    9
       Number of spherical basis functions:                                    9
       Norm type:                                                              2

       Normalised Cartesian orbitals:

                        Set   Shell   Orbital            Exponent    Coefficient

                          1       1    2s               23.518801       0.288931
                                                        11.135656       0.787174
                                                         4.647814      -0.190850
                                                         1.866708      -0.573823
                                                         0.734684      -0.276866
                                                         0.275673      -0.024211
                                                         0.049895      -0.000019

                          1       2    3s               23.518801       0.039212
                                                        11.135656       0.138585
                                                         4.647814      -0.048916
                                                         1.866708      -0.102378
                                                         0.734684      -0.139633
                                                         0.275673       0.012767
                                                         0.049895       0.077569

                          1       3    4s               23.518801       0.303698
                                                        11.135656      -0.548845
                                                         4.647814       0.534441
                                                         1.866708      -0.220920
                                                         0.734684       0.980584
                                                         0.275673      -0.653367
                                                         0.049895       0.063703

                          1       4    3px              23.518801      -2.919466
                                                        11.135656      -2.855941
                                                         4.647814      -2.579491
                                                         1.866708      -1.208264
                                                         0.734684      -0.321406
                                                         0.275673      -0.035032
                                                         0.049895      -0.000067
                          1       4    3py              23.518801      -2.919466
                                                        11.135656      -2.855941
                                                         4.647814      -2.579491
                                                         1.866708      -1.208264
                                                         0.734684      -0.321406
                                                         0.275673      -0.035032
                                                         0.049895      -0.000067
                          1       4    3pz              23.518801      -2.919466
                                                        11.135656      -2.855941
                                                         4.647814      -2.579491
                                                         1.866708      -1.208264
                                                         0.734684      -0.321406
                                                         0.275673      -0.035032
                                                         0.049895      -0.000067

                          1       5    4px              23.518801      -0.381914
                                                        11.135656      -0.488169
                                                         4.647814      -0.407378
                                                         1.866708      -0.201739
                                                         0.734684      -0.078845
                                                         0.275673       0.043427
                                                         0.049895       0.031563
                          1       5    4py              23.518801      -0.381914
                                                        11.135656      -0.488169
                                                         4.647814      -0.407378
                                                         1.866708      -0.201739
                                                         0.734684      -0.078845
                                                         0.275673       0.043427
                                                         0.049895       0.031563
                          1       5    4pz              23.518801      -0.381914
                                                        11.135656      -0.488169
                                                         4.647814      -0.407378
                                                         1.866708      -0.201739
                                                         0.734684      -0.078845
                                                         0.275673       0.043427
                                                         0.049895       0.031563

     GTH Potential information for                                    GTH-PBE-q9

       Description:                       Goedecker-Teter-Hutter pseudopotential
                                           Goedecker et al., PRB 54, 1703 (1996)
                                          Hartwigsen et al., PRB 58, 3641 (1998)
                                                      Krack, TCA 114, 145 (2005)

       Gaussian exponent of the core charge distribution:               8.937631
       Electronic configuration (s p d ...):                               3   6

       Parameters of the local part of the GTH pseudopotential:

                          rloc        C1          C2          C3          C4
                        0.236523    0.295105   -0.913885

       Parameters of the non-local part of the GTH pseudopotential:

                   l      r(l)      h(i,j,l)

                   0    0.143560   34.601492
                   1    0.129932  -14.277462


 MOLECULE KIND INFORMATION


 All atoms are their own molecule, skipping detailed information


 TOTAL NUMBERS AND MAXIMUM NUMBERS

  Total number of            - Atomic kinds:                                   2
                             - Atoms:                                         43
                             - Shell sets:                                    43
                             - Shells:                                       215
                             - Primitive Cartesian functions:                217
                             - Cartesian basis functions:                    597
                             - Spherical basis functions:                    555

  Maximum angular momentum of- Orbital basis functions:                        2
                             - Local part of the GTH pseudopotential:          2
                             - Non-local part of the GTH pseudopotential:      1


 MODULE QUICKSTEP:  ATOMIC COORDINATES IN angstrom

  Atom  Kind  Element       X           Y           Z          Z(eff)       Mass

       1     1 C    6    0.694560   -1.175500   -0.001080      4.00      12.0107
       2     1 C    6    0.000000    0.000000    0.000000      4.00      12.0107
       3     1 C    6    0.604390    1.277760   -0.012280      4.00      12.0107
       4     1 C    6    0.054290    2.530320   -0.021840      4.00      12.0107
       5     1 C    6    0.589830    3.791460   -0.069530      4.00      12.0107
       6     1 C    6   -0.026340    5.060010   -0.096760      4.00      12.0107
       7     1 C    6    0.662760    6.240110   -0.159280      4.00      12.0107
       8     1 C    6    2.069120    6.230210   -0.188350      4.00      12.0107
       9     1 C    6    2.092310    3.785810   -0.095990      4.00      12.0107
      10     1 C    6    2.802150    2.544270   -0.066540      4.00      12.0107
      11     1 C    6    2.107440    1.297480   -0.026040      4.00      12.0107
      12     1 C    6    2.818380    0.054480   -0.009740      4.00      12.0107
      13     1 C    6    2.103880   -1.155070    0.000460      4.00      12.0107
      14     1 C    6    2.795710    5.028190   -0.156950      4.00      12.0107
      15     1 C    6    4.975940    6.214880   -0.241670      4.00      12.0107
      16     1 C    6    4.265470    5.029770   -0.176540      4.00      12.0107
      17     1 C    6    4.983090    3.776320   -0.123790      4.00      12.0107
      18     1 C    6    4.264140    2.557840   -0.078590      4.00      12.0107
      19     1 C    6    4.987280    1.307110   -0.043640      4.00      12.0107
      20     1 C    6    4.278880    0.073720   -0.012410      4.00      12.0107
      21     1 C    6    5.021760   -1.133230    0.008730      4.00      12.0107
      22     1 C    6    6.396430   -1.140260    0.009300      4.00      12.0107
      23     1 C    6    7.139000    0.066510   -0.008990      4.00      12.0107
      24     1 C    6    6.430500    1.307660   -0.042700      4.00      12.0107
      25     1 C    6    7.158640    2.552530   -0.076820      4.00      12.0107
      26     1 C    6    6.437040    3.801090   -0.124130      4.00      12.0107
      27     1 C    6    7.155680    5.034710   -0.165680      4.00      12.0107
      28     1 C    6    6.399080    6.318960   -0.225640      4.00      12.0107
      29     1 C    6    9.344700    6.239600   -0.159560      4.00      12.0107
      30     1 C    6    8.602930    5.025720   -0.143640      4.00      12.0107
      31     1 C    6    9.309620    3.780570   -0.092940      4.00      12.0107
      32     1 C    6    8.602260    2.538820   -0.067180      4.00      12.0107
      33     1 C    6    9.302400    1.282720   -0.031490      4.00      12.0107
      34     1 C    6    8.592060    0.049580   -0.005400      4.00      12.0107
      35     1 C    6    9.313020   -1.170640    0.014390      4.00      12.0107
      36     1 C    6   10.712380   -1.182590    0.015260      4.00      12.0107
      37     1 C    6   11.417330    0.000000    0.000000      4.00      12.0107
      38     1 C    6   10.792700    1.267400   -0.026680      4.00      12.0107
      39     1 C    6   11.360950    2.522490   -0.046120      4.00      12.0107
      40     1 C    6   10.810620    3.781110   -0.069480      4.00      12.0107
      41     1 C    6   11.421210    5.049880   -0.079770      4.00      12.0107
      42     1 C    6   10.745480    6.241010   -0.117860      4.00      12.0107
      43     2 Na  11    2.086990    6.319710    2.499280      9.00      22.9898




 SCF PARAMETERS         Density guess:                                    ATOMIC
                        --------------------------------------------------------
                        max_scf:                                             100
                        max_scf_history:                                       0
                        max_diis:                                              4
                        --------------------------------------------------------
                        eps_scf:                                        3.00E-07
                        eps_scf_history:                                0.00E+00
                        eps_diis:                                       1.00E-01
                        eps_eigval:                                     1.00E-05
                        --------------------------------------------------------
                        level_shift [a.u.]:                                 0.00
                        added MOs                                       100  100
                        --------------------------------------------------------
                        Mixing method:                            BROYDEN_MIXING
                                                charge density mixing in g-space
                        --------------------------------------------------------
                        Smear method:                                FERMI_DIRAC
                        Electronic temperature [K]:                        300.0
                        Electronic temperature [a.u.]:                  9.50E-04
                        Accuracy threshold:                             1.00E-10
                        --------------------------------------------------------
                        Outer loop SCF in use 
                        No variables optimised in outer loop
                        eps_scf                                         1.00E-06
                        max_scf                                              150
                        DIIS optimization
                        DIIS buffer length                                     3
                        step_size                                       5.00E-01

 PW_GRID| Information for grid number                                          1
 PW_GRID| Grid distributed over                                    16 processors
 PW_GRID| Real space group dimensions                                    16    1
 PW_GRID| the grid is blocked:                                                NO
 PW_GRID| Cutoff [a.u.]                                                    250.0
 PW_GRID| spherical cutoff:                                                   NO
 PW_GRID|   Bounds   1            -90      89                Points:         180
 PW_GRID|   Bounds   2           -202     202                Points:         405
 PW_GRID|   Bounds   3           -270     269                Points:         540
 PW_GRID| Volume element (a.u.^3)  0.2642E-02     Volume (a.u.^3)    104010.7313
 PW_GRID| Grid span                                                    FULLSPACE
 PW_GRID|   Distribution                         Average         Max         Min
 PW_GRID|   G-Vectors                          2460375.0     2460420     2460240
 PW_GRID|   G-Rays                               13668.8       13669       13668
 PW_GRID|   Real Space Points                  2460375.0     2624400     2405700

 PW_GRID| Information for grid number                                          2
 PW_GRID| Grid distributed over                                    16 processors
 PW_GRID| Real space group dimensions                                    16    1
 PW_GRID| the grid is blocked:                                                NO
 PW_GRID| Cutoff [a.u.]                                                     83.3
 PW_GRID| spherical cutoff:                                                   NO
 PW_GRID|   Bounds   1            -50      49                Points:         100
 PW_GRID|   Bounds   2           -120     119                Points:         240
 PW_GRID|   Bounds   3           -160     159                Points:         320
 PW_GRID| Volume element (a.u.^3)  0.1354E-01     Volume (a.u.^3)    104010.7313
 PW_GRID| Grid span                                                    FULLSPACE
 PW_GRID|   Distribution                         Average         Max         Min
 PW_GRID|   G-Vectors                           480000.0      480400      479600
 PW_GRID|   G-Rays                                4800.0        4804        4796
 PW_GRID|   Real Space Points                   480000.0      537600      460800

 PW_GRID| Information for grid number                                          3
 PW_GRID| Grid distributed over                                    16 processors
 PW_GRID| Real space group dimensions                                    16    1
 PW_GRID| the grid is blocked:                                                NO
 PW_GRID| Cutoff [a.u.]                                                     27.8
 PW_GRID| spherical cutoff:                                                   NO
 PW_GRID|   Bounds   1            -30      29                Points:          60
 PW_GRID|   Bounds   2            -67      67                Points:         135
 PW_GRID|   Bounds   3            -90      89                Points:         180
 PW_GRID| Volume element (a.u.^3)  0.7134E-01     Volume (a.u.^3)    104010.7313
 PW_GRID| Grid span                                                    FULLSPACE
 PW_GRID|   Distribution                         Average         Max         Min
 PW_GRID|   G-Vectors                            91125.0       91260       91020
 PW_GRID|   G-Rays                                1518.8        1521        1517
 PW_GRID|   Real Space Points                    91125.0       97200       72900

 PW_GRID| Information for grid number                                          4
 PW_GRID| Grid distributed over                                    16 processors
 PW_GRID| Real space group dimensions                                    16    1
 PW_GRID| the grid is blocked:                                                NO
 PW_GRID| Cutoff [a.u.]                                                      9.3
 PW_GRID| spherical cutoff:                                                   NO
 PW_GRID|   Bounds   1            -18      17                Points:          36
 PW_GRID|   Bounds   2            -40      39                Points:          80
 PW_GRID|   Bounds   3            -54      53                Points:         108
 PW_GRID| Volume element (a.u.^3)  0.3344         Volume (a.u.^3)    104010.7313
 PW_GRID| Grid span                                                    FULLSPACE
 PW_GRID|   Distribution                         Average         Max         Min
 PW_GRID|   G-Vectors                            19440.0       19548       19332
 PW_GRID|   G-Rays                                 540.0         543         537
 PW_GRID|   Real Space Points                    19440.0       25920       17280

 POISSON| Solver                                                        PERIODIC
 POISSON| Periodicity                                                        XYZ

 RS_GRID| Information for grid number                                          1
 RS_GRID|   Bounds   1            -90      89                Points:         180
 RS_GRID|   Bounds   2           -202     202                Points:         405
 RS_GRID|   Bounds   3           -270     269                Points:         540
 RS_GRID| Real space distribution over                                  4 groups
 RS_GRID| Real space distribution along direction                              2
 RS_GRID| Border size                                                         23
 RS_GRID| Real space distribution over                                  4 groups
 RS_GRID| Real space distribution along direction                              3
 RS_GRID| Border size                                                         23
 RS_GRID|   Distribution                         Average         Max         Min
 RS_GRID|   Planes                                 147.2         148         147
 RS_GRID|   Distribution                         Average         Max         Min
 RS_GRID|   Planes                                 181.0         181         181

 RS_GRID| Information for grid number                                          2
 RS_GRID|   Bounds   1            -50      49                Points:         100
 RS_GRID|   Bounds   2           -120     119                Points:         240
 RS_GRID|   Bounds   3           -160     159                Points:         320
 RS_GRID| Real space distribution over                                  4 groups
 RS_GRID| Real space distribution along direction                              2
 RS_GRID| Border size                                                         22
 RS_GRID| Real space distribution over                                  4 groups
 RS_GRID| Real space distribution along direction                              3
 RS_GRID| Border size                                                         22
 RS_GRID|   Distribution                         Average         Max         Min
 RS_GRID|   Planes                                 104.0         104         104
 RS_GRID|   Distribution                         Average         Max         Min
 RS_GRID|   Planes                                 124.0         124         124

 RS_GRID| Information for grid number                                          3
 RS_GRID|   Bounds   1            -30      29                Points:          60
 RS_GRID|   Bounds   2            -67      67                Points:         135
 RS_GRID|   Bounds   3            -90      89                Points:         180
 RS_GRID| Real space fully replicated
 RS_GRID| Group size                                                           1

 RS_GRID| Information for grid number                                          4
 RS_GRID|   Bounds   1            -18      17                Points:          36
 RS_GRID|   Bounds   2            -40      39                Points:          80
 RS_GRID|   Bounds   3            -54      53                Points:         108
 RS_GRID| Real space fully replicated
 RS_GRID| Group size                                                           1

 -------------------------------------------------------------------------------
 -                                                                             -
 -  BSSE CALCULATION         FRAGMENT CONF: 10        FRAGMENT SUBCONF: 10     -
 -                           CHARGE =     0           MULTIPLICITY =     0     -
 -                                                                             -
 -                 ATOM INDEX                              ATOM NAME           -
 -                 ----------                              ---------           -
 -                      1                                   C                  -
 -                      2                                   C                  -
 -                      3                                   C                  -
 -                      4                                   C                  -
 -                      5                                   C                  -
 -                      6                                   C                  -
 -                      7                                   C                  -
 -                      8                                   C                  -
 -                      9                                   C                  -
 -                     10                                   C                  -
 -                     11                                   C                  -
 -                     12                                   C                  -
 -                     13                                   C                  -
 -                     14                                   C                  -
 -                     15                                   C                  -
 -                     16                                   C                  -
 -                     17                                   C                  -
 -                     18                                   C                  -
 -                     19                                   C                  -
 -                     20                                   C                  -
 -                     21                                   C                  -
 -                     22                                   C                  -
 -                     23                                   C                  -
 -                     24                                   C                  -
 -                     25                                   C                  -
 -                     26                                   C                  -
 -                     27                                   C                  -
 -                     28                                   C                  -
 -                     29                                   C                  -
 -                     30                                   C                  -
 -                     31                                   C                  -
 -                     32                                   C                  -
 -                     33                                   C                  -
 -                     34                                   C                  -
 -                     35                                   C                  -
 -                     36                                   C                  -
 -                     37                                   C                  -
 -                     38                                   C                  -
 -                     39                                   C                  -
 -                     40                                   C                  -
 -                     41                                   C                  -
 -                     42                                   C                  -
 -------------------------------------------------------------------------------

 CELL| Volume [angstrom^3]:                                            15412.800
 CELL| Vector a [angstrom]:      12.844     0.000     0.000    |a| =      12.844
 CELL| Vector b [angstrom]:       0.000    30.000     0.000    |b| =      30.000
 CELL| Vector c [angstrom]:       0.000     0.000    40.000    |c| =      40.000
 CELL| Angle (b,c), alpha [degree]:                                       90.000
 CELL| Angle (a,c), beta  [degree]:                                       90.000
 CELL| Angle (a,b), gamma [degree]:                                       90.000
 CELL| Requested initial symmetry:                                     TRICLINIC
 CELL| Numerically orthorhombic:                                             YES

 CELL_REF| Volume [angstrom^3]:                                        15412.800
 CELL_REF| Vector a [angstrom    12.844     0.000     0.000    |a| =      12.844
 CELL_REF| Vector b [angstrom     0.000    30.000     0.000    |b| =      30.000
 CELL_REF| Vector c [angstrom     0.000     0.000    40.000    |c| =      40.000
 CELL_REF| Angle (b,c), alpha [degree]:                                   90.000
 CELL_REF| Angle (a,c), beta  [degree]:                                   90.000
 CELL_REF| Angle (a,b), gamma [degree]:                                   90.000
 CELL_REF| Requested initial symmetry:                                 TRICLINIC
 CELL_REF| Numerically orthorhombic:                                         YES

 *******************************************************************************
 *******************************************************************************
 **                                                                           **
 **     #####                         ##              ##                      **
 **    ##   ##            ##          ##              ##                      **
 **   ##     ##                       ##            ######                    **
 **   ##     ##  ##   ##  ##   #####  ##  ##   ####   ##    #####    #####    **
 **   ##     ##  ##   ##  ##  ##      ## ##   ##      ##   ##   ##  ##   ##   **
 **   ##  ## ##  ##   ##  ##  ##      ####     ###    ##   ######   ######    **
 **    ##  ###   ##   ##  ##  ##      ## ##      ##   ##   ##       ##        **
 **     #######   #####   ##   #####  ##  ##  ####    ##    #####   ##        **
 **           ##                                                    ##        **
 **                                                                           **
 **                                                ... make the atoms dance   **
 **                                                                           **
 **            Copyright (C) by CP2K developers group (2000 - 2018)           **
 **                                                                           **
 *******************************************************************************

 DFT| Spin unrestricted (spin-polarized) Kohn-Sham calculation               UKS
 DFT| Multiplicity                                                             1
 DFT| Number of spin states                                                    2
 DFT| Charge                                                                   0
 DFT| Self-interaction correction (SIC)                                       NO
 DFT| Cutoffs: density                                              1.000000E-10
 DFT|          gradient                                             1.000000E-10
 DFT|          tau                                                  1.000000E-10
 DFT|          cutoff_smoothing_range                               0.000000E+00
 DFT| XC density smoothing                                                  NONE
 DFT| XC derivatives                                              SPLINE2_SMOOTH
 FUNCTIONAL| ROUTINE=NEW
 FUNCTIONAL| BECKE88:
 FUNCTIONAL| A. Becke, Phys. Rev. A 38, 3098 (1988) {LSD version}               
 FUNCTIONAL| LYP:
 FUNCTIONAL| C. Lee, W. Yang, R.G. Parr, Phys. Rev. B, 37, 785 (1988) {LSD versi
 FUNCTIONAL| on}                                                                
 vdW POTENTIAL|                                                   Pair Potential
 vdW POTENTIAL|          DFT-D3 (Version 3.1)
 vdW POTENTIAL|          Potential Form: S. Grimme et al, JCP 132: 154104 (2010)
 vdW POTENTIAL|          Zero Damping
 vdW POTENTIAL|          Cutoff Radius [Bohr]:                             20.00
 vdW POTENTIAL|          s6 Scaling Factor:                               1.0000
 vdW POTENTIAL|          sr6 Scaling Factor:                              1.0940
 vdW POTENTIAL|          s8 Scaling Factor:                               1.6820
 vdW POTENTIAL|          Cutoff for CN calculation:                   0.1000E-05

 QS| Method:                                                                 GPW
 QS| Density plane wave grid type                        NON-SPHERICAL FULLSPACE
 QS| Number of grid levels:                                                    4
 QS| Density cutoff [a.u.]:                                                250.0
 QS| Multi grid cutoff [a.u.]: 1) grid level                               250.0
 QS|                           2) grid level                                83.3
 QS|                           3) grid level                                27.8
 QS|                           4) grid level                                 9.3
 QS| Grid level progression factor:                                          3.0
 QS| Relative density cutoff [a.u.]:                                        20.0
 QS| Consistent realspace mapping and integration 
 QS| Interaction thresholds: eps_pgf_orb:                                1.0E-06
 QS|                         eps_filter_matrix:                          0.0E+00
 QS|                         eps_core_charge:                            1.0E-14
 QS|                         eps_rho_gspace:                             1.0E-12
 QS|                         eps_rho_rspace:                             1.0E-12
 QS|                         eps_gvg_rspace:                             1.0E-06
 QS|                         eps_ppl:                                    1.0E-02
 QS|                         eps_ppnl:                                   1.0E-08


 ATOMIC KIND INFORMATION

  1. Atomic kind: C                                     Number of atoms:      42

     Orbital Basis Set                                        DZVP-MOLOPT-SR-GTH

       Number of orbital shell sets:                                           1
       Number of orbital shells:                                               5
       Number of primitive Cartesian functions:                                5
       Number of Cartesian basis functions:                                   14
       Number of spherical basis functions:                                   13
       Norm type:                                                              2

       Normalised Cartesian orbitals:

                        Set   Shell   Orbital            Exponent    Coefficient

                          1       1    2s                5.605331       0.322515
                                                         2.113016       0.213043
                                                         0.769911      -0.209686
                                                         0.348157      -0.219794
                                                         0.128212      -0.022789

                          1       2    3s                5.605331       0.552234
                                                         2.113016       0.082072
                                                         0.769911       0.007843
                                                         0.348157       0.136893
                                                         0.128212       0.074283

                          1       3    3px               5.605331      -0.703879
                                                         2.113016      -0.642521
                                                         0.769911      -0.374851
                                                         0.348157      -0.139743
                                                         0.128212      -0.027849
                          1       3    3py               5.605331      -0.703879
                                                         2.113016      -0.642521
                                                         0.769911      -0.374851
                                                         0.348157      -0.139743
                                                         0.128212      -0.027849
                          1       3    3pz               5.605331      -0.703879
                                                         2.113016      -0.642521
                                                         0.769911      -0.374851
                                                         0.348157      -0.139743
                                                         0.128212      -0.027849

                          1       4    4px               5.605331      -0.480376
                                                         2.113016      -0.552894
                                                         0.769911      -0.316145
                                                         0.348157       0.210505
                                                         0.128212       0.076095
                          1       4    4py               5.605331      -0.480376
                                                         2.113016      -0.552894
                                                         0.769911      -0.316145
                                                         0.348157       0.210505
                                                         0.128212       0.076095
                          1       4    4pz               5.605331      -0.480376
                                                         2.113016      -0.552894
                                                         0.769911      -0.316145
                                                         0.348157       0.210505
                                                         0.128212       0.076095

                          1       5    4dx2              5.605331       0.640026
                                                         2.113016       0.274300
                                                         0.769911       0.446711
                                                         0.348157       0.028674
                                                         0.128212       0.029790
                          1       5    4dxy              5.605331       1.108557
                                                         2.113016       0.475102
                                                         0.769911       0.773726
                                                         0.348157       0.049666
                                                         0.128212       0.051599
                          1       5    4dxz              5.605331       1.108557
                                                         2.113016       0.475102
                                                         0.769911       0.773726
                                                         0.348157       0.049666
                                                         0.128212       0.051599
                          1       5    4dy2              5.605331       0.640026
                                                         2.113016       0.274300
                                                         0.769911       0.446711
                                                         0.348157       0.028674
                                                         0.128212       0.029790
                          1       5    4dyz              5.605331       1.108557
                                                         2.113016       0.475102
                                                         0.769911       0.773726
                                                         0.348157       0.049666
                                                         0.128212       0.051599
                          1       5    4dz2              5.605331       0.640026
                                                         2.113016       0.274300
                                                         0.769911       0.446711
                                                         0.348157       0.028674
                                                         0.128212       0.029790

     GTH Potential information for                                    GTH-PBE-q4

       Description:                       Goedecker-Teter-Hutter pseudopotential
                                           Goedecker et al., PRB 54, 1703 (1996)
                                          Hartwigsen et al., PRB 58, 3641 (1998)
                                                      Krack, TCA 114, 145 (2005)

       Gaussian exponent of the core charge distribution:               4.364419
       Electronic configuration (s p d ...):                               2   2

       Parameters of the local part of the GTH pseudopotential:

                          rloc        C1          C2          C3          C4
                        0.338471   -8.803674    1.339211

       Parameters of the non-local part of the GTH pseudopotential:

                   l      r(l)      h(i,j,l)

                   0    0.302576    9.622487
                   1    0.291507


 MOLECULE KIND INFORMATION


 All atoms are their own molecule, skipping detailed information


 TOTAL NUMBERS AND MAXIMUM NUMBERS

  Total number of            - Atomic kinds:                                   1
                             - Atoms:                                         42
                             - Shell sets:                                    42
                             - Shells:                                       210
                             - Primitive Cartesian functions:                210
                             - Cartesian basis functions:                    588
                             - Spherical basis functions:                    546

  Maximum angular momentum of- Orbital basis functions:                        2
                             - Local part of the GTH pseudopotential:          2
                             - Non-local part of the GTH pseudopotential:      0


 MODULE QUICKSTEP:  ATOMIC COORDINATES IN angstrom

  Atom  Kind  Element       X           Y           Z          Z(eff)       Mass

       1     1 C    6    0.694560   -1.175500   -0.001080      4.00      12.0107
       2     1 C    6    0.000000    0.000000    0.000000      4.00      12.0107
       3     1 C    6    0.604390    1.277760   -0.012280      4.00      12.0107
       4     1 C    6    0.054290    2.530320   -0.021840      4.00      12.0107
       5     1 C    6    0.589830    3.791460   -0.069530      4.00      12.0107
       6     1 C    6   -0.026340    5.060010   -0.096760      4.00      12.0107
       7     1 C    6    0.662760    6.240110   -0.159280      4.00      12.0107
       8     1 C    6    2.069120    6.230210   -0.188350      4.00      12.0107
       9     1 C    6    2.092310    3.785810   -0.095990      4.00      12.0107
      10     1 C    6    2.802150    2.544270   -0.066540      4.00      12.0107
      11     1 C    6    2.107440    1.297480   -0.026040      4.00      12.0107
      12     1 C    6    2.818380    0.054480   -0.009740      4.00      12.0107
      13     1 C    6    2.103880   -1.155070    0.000460      4.00      12.0107
      14     1 C    6    2.795710    5.028190   -0.156950      4.00      12.0107
      15     1 C    6    4.975940    6.214880   -0.241670      4.00      12.0107
      16     1 C    6    4.265470    5.029770   -0.176540      4.00      12.0107
      17     1 C    6    4.983090    3.776320   -0.123790      4.00      12.0107
      18     1 C    6    4.264140    2.557840   -0.078590      4.00      12.0107
      19     1 C    6    4.987280    1.307110   -0.043640      4.00      12.0107
      20     1 C    6    4.278880    0.073720   -0.012410      4.00      12.0107
      21     1 C    6    5.021760   -1.133230    0.008730      4.00      12.0107
      22     1 C    6    6.396430   -1.140260    0.009300      4.00      12.0107
      23     1 C    6    7.139000    0.066510   -0.008990      4.00      12.0107
      24     1 C    6    6.430500    1.307660   -0.042700      4.00      12.0107
      25     1 C    6    7.158640    2.552530   -0.076820      4.00      12.0107
      26     1 C    6    6.437040    3.801090   -0.124130      4.00      12.0107
      27     1 C    6    7.155680    5.034710   -0.165680      4.00      12.0107
      28     1 C    6    6.399080    6.318960   -0.225640      4.00      12.0107
      29     1 C    6    9.344700    6.239600   -0.159560      4.00      12.0107
      30     1 C    6    8.602930    5.025720   -0.143640      4.00      12.0107
      31     1 C    6    9.309620    3.780570   -0.092940      4.00      12.0107
      32     1 C    6    8.602260    2.538820   -0.067180      4.00      12.0107
      33     1 C    6    9.302400    1.282720   -0.031490      4.00      12.0107
      34     1 C    6    8.592060    0.049580   -0.005400      4.00      12.0107
      35     1 C    6    9.313020   -1.170640    0.014390      4.00      12.0107
      36     1 C    6   10.712380   -1.182590    0.015260      4.00      12.0107
      37     1 C    6   11.417330    0.000000    0.000000      4.00      12.0107
      38     1 C    6   10.792700    1.267400   -0.026680      4.00      12.0107
      39     1 C    6   11.360950    2.522490   -0.046120      4.00      12.0107
      40     1 C    6   10.810620    3.781110   -0.069480      4.00      12.0107
      41     1 C    6   11.421210    5.049880   -0.079770      4.00      12.0107
      42     1 C    6   10.745480    6.241010   -0.117860      4.00      12.0107




 SCF PARAMETERS         Density guess:                                    ATOMIC
                        --------------------------------------------------------
                        max_scf:                                             100
                        max_scf_history:                                       0
                        max_diis:                                              4
                        --------------------------------------------------------
                        eps_scf:                                        3.00E-07
                        eps_scf_history:                                0.00E+00
                        eps_diis:                                       1.00E-01
                        eps_eigval:                                     1.00E-05
                        --------------------------------------------------------
                        level_shift [a.u.]:                                 0.00
                        added MOs                                       100  100
                        --------------------------------------------------------
                        Mixing method:                            BROYDEN_MIXING
                                                charge density mixing in g-space
                        --------------------------------------------------------
                        Smear method:                                FERMI_DIRAC
                        Electronic temperature [K]:                        300.0
                        Electronic temperature [a.u.]:                  9.50E-04
                        Accuracy threshold:                             1.00E-10
                        --------------------------------------------------------
                        Outer loop SCF in use 
                        No variables optimised in outer loop
                        eps_scf                                         1.00E-06
                        max_scf                                              150
                        DIIS optimization
                        DIIS buffer length                                     3
                        step_size                                       5.00E-01

 PW_GRID| Information for grid number                                          5
 PW_GRID| Grid distributed over                                    16 processors
 PW_GRID| Real space group dimensions                                    16    1
 PW_GRID| the grid is blocked:                                                NO
 PW_GRID| Cutoff [a.u.]                                                    250.0
 PW_GRID| spherical cutoff:                                                   NO
 PW_GRID|   Bounds   1            -90      89                Points:         180
 PW_GRID|   Bounds   2           -202     202                Points:         405
 PW_GRID|   Bounds   3           -270     269                Points:         540
 PW_GRID| Volume element (a.u.^3)  0.2642E-02     Volume (a.u.^3)    104010.7313
 PW_GRID| Grid span                                                    FULLSPACE
 PW_GRID|   Distribution                         Average         Max         Min
 PW_GRID|   G-Vectors                          2460375.0     2460420     2460240
 PW_GRID|   G-Rays                               13668.8       13669       13668
 PW_GRID|   Real Space Points                  2460375.0     2624400     2405700

 PW_GRID| Information for grid number                                          6
 PW_GRID| Grid distributed over                                    16 processors
 PW_GRID| Real space group dimensions                                    16    1
 PW_GRID| the grid is blocked:                                                NO
 PW_GRID| Cutoff [a.u.]                                                     83.3
 PW_GRID| spherical cutoff:                                                   NO
 PW_GRID|   Bounds   1            -50      49                Points:         100
 PW_GRID|   Bounds   2           -120     119                Points:         240
 PW_GRID|   Bounds   3           -160     159                Points:         320
 PW_GRID| Volume element (a.u.^3)  0.1354E-01     Volume (a.u.^3)    104010.7313
 PW_GRID| Grid span                                                    FULLSPACE
 PW_GRID|   Distribution                         Average         Max         Min
 PW_GRID|   G-Vectors                           480000.0      480400      479600
 PW_GRID|   G-Rays                                4800.0        4804        4796
 PW_GRID|   Real Space Points                   480000.0      537600      460800

 PW_GRID| Information for grid number                                          7
 PW_GRID| Grid distributed over                                    16 processors
 PW_GRID| Real space group dimensions                                    16    1
 PW_GRID| the grid is blocked:                                                NO
 PW_GRID| Cutoff [a.u.]                                                     27.8
 PW_GRID| spherical cutoff:                                                   NO
 PW_GRID|   Bounds   1            -30      29                Points:          60
 PW_GRID|   Bounds   2            -67      67                Points:         135
 PW_GRID|   Bounds   3            -90      89                Points:         180
 PW_GRID| Volume element (a.u.^3)  0.7134E-01     Volume (a.u.^3)    104010.7313
 PW_GRID| Grid span                                                    FULLSPACE
 PW_GRID|   Distribution                         Average         Max         Min
 PW_GRID|   G-Vectors                            91125.0       91260       91020
 PW_GRID|   G-Rays                                1518.8        1521        1517
 PW_GRID|   Real Space Points                    91125.0       97200       72900

 PW_GRID| Information for grid number                                          8
 PW_GRID| Grid distributed over                                    16 processors
 PW_GRID| Real space group dimensions                                    16    1
 PW_GRID| the grid is blocked:                                                NO
 PW_GRID| Cutoff [a.u.]                                                      9.3
 PW_GRID| spherical cutoff:                                                   NO
 PW_GRID|   Bounds   1            -18      17                Points:          36
 PW_GRID|   Bounds   2            -40      39                Points:          80
 PW_GRID|   Bounds   3            -54      53                Points:         108
 PW_GRID| Volume element (a.u.^3)  0.3344         Volume (a.u.^3)    104010.7313
 PW_GRID| Grid span                                                    FULLSPACE
 PW_GRID|   Distribution                         Average         Max         Min
 PW_GRID|   G-Vectors                            19440.0       19548       19332
 PW_GRID|   G-Rays                                 540.0         543         537
 PW_GRID|   Real Space Points                    19440.0       25920       17280

 POISSON| Solver                                                        PERIODIC
 POISSON| Periodicity                                                        XYZ

 RS_GRID| Information for grid number                                          5
 RS_GRID|   Bounds   1            -90      89                Points:         180
 RS_GRID|   Bounds   2           -202     202                Points:         405
 RS_GRID|   Bounds   3           -270     269                Points:         540
 RS_GRID| Real space distribution over                                  4 groups
 RS_GRID| Real space distribution along direction                              2
 RS_GRID| Border size                                                         23
 RS_GRID| Real space distribution over                                  4 groups
 RS_GRID| Real space distribution along direction                              3
 RS_GRID| Border size                                                         23
 RS_GRID|   Distribution                         Average         Max         Min
 RS_GRID|   Planes                                 147.2         148         147
 RS_GRID|   Distribution                         Average         Max         Min
 RS_GRID|   Planes                                 181.0         181         181

 RS_GRID| Information for grid number                                          6
 RS_GRID|   Bounds   1            -50      49                Points:         100
 RS_GRID|   Bounds   2           -120     119                Points:         240
 RS_GRID|   Bounds   3           -160     159                Points:         320
 RS_GRID| Real space distribution over                                  4 groups
 RS_GRID| Real space distribution along direction                              2
 RS_GRID| Border size                                                         22
 RS_GRID| Real space distribution over                                  4 groups
 RS_GRID| Real space distribution along direction                              3
 RS_GRID| Border size                                                         22
 RS_GRID|   Distribution                         Average         Max         Min
 RS_GRID|   Planes                                 104.0         104         104
 RS_GRID|   Distribution                         Average         Max         Min
 RS_GRID|   Planes                                 124.0         124         124

 RS_GRID| Information for grid number                                          7
 RS_GRID|   Bounds   1            -30      29                Points:          60
 RS_GRID|   Bounds   2            -67      67                Points:         135
 RS_GRID|   Bounds   3            -90      89                Points:         180
 RS_GRID| Real space fully replicated
 RS_GRID| Group size                                                           1

 RS_GRID| Information for grid number                                          8
 RS_GRID|   Bounds   1            -18      17                Points:          36
 RS_GRID|   Bounds   2            -40      39                Points:          80
 RS_GRID|   Bounds   3            -54      53                Points:         108
 RS_GRID| Real space fully replicated
 RS_GRID| Group size                                                           1

 Spin 1

 Number of electrons:                                                         84
 Number of occupied orbitals:                                                 84
 Number of molecular orbitals:                                               184

 Spin 2

 Number of electrons:                                                         84
 Number of occupied orbitals:                                                 84
 Number of molecular orbitals:                                               184

 Number of orbital functions:                                                546
 Number of independent orbital functions:                                    546

 Extrapolation method: initial_guess

 Atomic guess: The first density matrix is obtained in terms of atomic orbitals
               and electronic configurations assigned to each atomic kind

 Guess for atomic kind: C

 Electronic structure
    Total number of core electrons                                          2.00
    Total number of valence electrons                                       4.00
    Total number of electrons                                               6.00
    Multiplicity                                                   not specified
    S   [  2.00] 2.00
    P      2.00


 *******************************************************************************
                  Iteration          Convergence                     Energy [au]
 *******************************************************************************
                          1        0.457038                      -5.151105664215
                          2        0.157450                      -5.235617431356
                          3        0.130137E-02                  -5.246564342251
                          4        0.531061E-03                  -5.246565033610
                          5        0.605965E-04                  -5.246565167704
                          6        0.323545E-04                  -5.246565168968
                          7        0.365472E-07                  -5.246565169473

 Energy components [Hartree]           Total Energy ::           -5.246565169473
                                        Band Energy ::           -1.058732656762
                                     Kinetic Energy ::            3.518928154187
                                   Potential Energy ::           -8.765493323660
                                      Virial (-V/T) ::            2.490955467002
                                        Core Energy ::           -8.429377161979
                                          XC Energy ::           -1.450183339326
                                     Coulomb Energy ::            4.632995331832
                       Total Pseudopotential Energy ::          -11.978048785149
                       Local Pseudopotential Energy ::          -12.816738149676
                    Nonlocal Pseudopotential Energy ::            0.838689364526
                                        Confinement ::            0.297434689834

 Orbital energies  State     L     Occupation   Energy[a.u.]          Energy[eV]

                       1     0          2.000      -0.410911          -11.181458

                       1     1          2.000      -0.118455           -3.223332


 Total Electron Density at R=0:                                         0.001337

 Spin 1
 Re-scaling the density matrix to get the right number of electrons for spin 1
                  # Electrons              Trace(P)               Scaling factor
                           84                84.000                        1.000

 Spin 2
[...]
    55 Broy./Diag. 0.10E+00    8.3     0.00004263      -283.9815861863  2.37E-06
    56 Broy./Diag. 0.10E+00    8.3     0.00005913      -283.9815828637  3.32E-06
    57 Broy./Diag. 0.10E+00    8.2     0.00001095      -283.9815775714  5.29E-06
    58 Broy./Diag. 0.10E+00    8.2     0.00002204      -283.9815798810 -2.31E-06
    59 Broy./Diag. 0.10E+00    8.2     0.00001209      -283.9815854994 -5.62E-06
    60 Broy./Diag. 0.10E+00    8.2     0.00001868      -283.9815855846 -8.53E-08
    61 Broy./Diag. 0.10E+00    8.3     0.00001860      -283.9815869000 -1.32E-06
    62 Broy./Diag. 0.10E+00    8.2     0.00001741      -283.9815846911  2.21E-06
    63 Broy./Diag. 0.10E+00    8.2     0.00006024      -283.9815883927 -3.70E-06
    64 Broy./Diag. 0.10E+00    8.3     0.00004347      -283.9815949809 -6.59E-06
    65 Broy./Diag. 0.10E+00    8.2     0.00005447      -283.9816015185 -6.54E-06
    66 Broy./Diag. 0.10E+00    8.2     0.00008755      -283.9816173110 -1.58E-05
    67 Broy./Diag. 0.10E+00    8.2     0.00007054      -283.9815978266  1.95E-05
    68 Broy./Diag. 0.10E+00    8.3     0.00011063      -283.9815767337  2.11E-05
    69 Broy./Diag. 0.10E+00    8.2     0.00002148      -283.9815703010  6.43E-06
    70 Broy./Diag. 0.10E+00    8.2     0.00003468      -283.9815788670 -8.57E-06
    71 Broy./Diag. 0.10E+00    8.2     0.00006113      -283.9815769672  1.90E-06
    72 Broy./Diag. 0.10E+00    8.2     0.00010533      -283.9815817553 -4.79E-06
    73 Broy./Diag. 0.10E+00    8.2     0.00002633      -283.9815798433  1.91E-06
    74 Broy./Diag. 0.10E+00    8.2     0.00007232      -283.9815798607 -1.74E-08
    75 Broy./Diag. 0.10E+00    8.3     0.00009073      -283.9815586781  2.12E-05
    76 Broy./Diag. 0.10E+00    8.3     0.00004676      -283.9815773764 -1.87E-05
    77 Broy./Diag. 0.10E+00    8.2     0.00006514      -283.9815569627  2.04E-05
    78 Broy./Diag. 0.10E+00    8.2     0.00009174      -283.9815402643  1.67E-05
    79 Broy./Diag. 0.10E+00    8.2     0.00007207      -283.9815554592 -1.52E-05
    80 Broy./Diag. 0.10E+00    8.2     0.00006811      -283.9815420591  1.34E-05
    81 Broy./Diag. 0.10E+00    8.2     0.00003902      -283.9815418759  1.83E-07
    82 Broy./Diag. 0.10E+00    8.2     0.00000738      -283.9815577472 -1.59E-05
    83 Broy./Diag. 0.10E+00    8.2     0.00014471      -283.9815708992 -1.32E-05
    84 Broy./Diag. 0.10E+00    8.3     0.00013618      -283.9815659768  4.92E-06
    85 Broy./Diag. 0.10E+00    8.2     0.00011116      -283.9815356587  3.03E-05
    86 Broy./Diag. 0.10E+00    8.2     0.00005506      -283.9815559369 -2.03E-05
    87 Broy./Diag. 0.10E+00    8.2     0.00003482      -283.9815553821  5.55E-07
    88 Broy./Diag. 0.10E+00    8.3     0.00011444      -283.9815517224  3.66E-06
    89 Broy./Diag. 0.10E+00    9.3     0.00012398      -283.9815562971 -4.57E-06
    90 Broy./Diag. 0.10E+00    8.2     0.00006419      -283.9815554670  8.30E-07
    91 Broy./Diag. 0.10E+00    8.2     0.00002722      -283.9815692663 -1.38E-05
    92 Broy./Diag. 0.10E+00    8.3     0.00017299      -283.9815616639  7.60E-06
    93 Broy./Diag. 0.10E+00    8.3     0.00017067      -283.9815349243  2.67E-05
    94 Broy./Diag. 0.10E+00    8.7     0.00014520      -283.9815646697 -2.97E-05
    95 Broy./Diag. 0.10E+00    8.3     0.00006723      -283.9815317015  3.30E-05
    96 Broy./Diag. 0.10E+00    8.3     0.00003591      -283.9815329030 -1.20E-06
    97 Broy./Diag. 0.10E+00    8.3     0.00018078      -283.9815301674  2.74E-06
    98 Broy./Diag. 0.10E+00    8.2     0.00007546      -283.9815470448 -1.69E-05
    99 Broy./Diag. 0.10E+00    8.3     0.00003993      -283.9815696698 -2.26E-05
   100 Broy./Diag. 0.10E+00    8.4     0.00001829      -283.9815800619 -1.04E-05

  Leaving inner SCF loop after reaching   100 steps.


  Electronic density on regular grids:       -177.0000012774       -0.0000012774
  Core density on regular grids:              176.9999999998       -0.0000000002
  Total charge density on r-space grids:       -0.0000012776
  Total charge density g-space grids:          -0.0000012776

  Overlap energy of the core charge distribution:               0.00000836868231
  Self energy of the core charge distribution:               -656.67682311856504
  Core Hamiltonian energy:                                    203.32028521665939
  Hartree energy:                                             247.60972092673836
  Exchange-correlation energy:                                -78.15383235620450
  Dispersion energy:                                           -0.07782657454377
  Electronic entropic energy:                                  -0.00311243681531
  Fermi energy:                                                -0.14401999274152

  Total energy:                                              -283.98158006187077

  outer SCF iter =   32 RMS gradient =   0.18E-04 energy =       -283.9815800619
     1 Broy./Diag. 0.10E+00   12.0     0.00071144      -283.9815155853  6.45E-05
     2 Broy./Diag. 0.10E+00    8.3     0.00063750      -283.9814929848  2.26E-05
     3 Broy./Diag. 0.10E+00    8.3     0.00006086      -283.9815751779 -8.22E-05
     4 Broy./Diag. 0.10E+00    8.2     0.00004935      -283.9816047750 -2.96E-05
     5 Broy./Diag. 0.10E+00    8.3     0.00003435      -283.9816142589 -9.48E-06
     6 Broy./Diag. 0.10E+00    8.2     0.00004819      -283.9816146456 -3.87E-07
     7 Broy./Diag. 0.10E+00   12.8     0.00001701      -283.9816016628  1.30E-05
     8 Broy./Diag. 0.10E+00    9.0     0.00000881      -283.9815994045  2.26E-06
     9 Broy./Diag. 0.10E+00    8.2     0.00003257      -283.9815989117  4.93E-07
    10 Broy./Diag. 0.10E+00    8.2     0.00005210      -283.9816064445 -7.53E-06
    11 Broy./Diag. 0.10E+00    8.2     0.00003057      -283.9816000197  6.42E-06
    12 Broy./Diag. 0.10E+00    8.2     0.00003942      -283.9816006965 -6.77E-07
    13 Broy./Diag. 0.10E+00    8.2     0.00001866      -283.9816058656 -5.17E-06
    14 Broy./Diag. 0.10E+00    8.2     0.00002423      -283.9815981601  7.71E-06
    15 Broy./Diag. 0.10E+00    8.3     0.00001152      -283.9816063686 -8.21E-06
    16 Broy./Diag. 0.10E+00    8.2     0.00003543      -283.9815943747  1.20E-05
    17 Broy./Diag. 0.10E+00    8.2     0.00006120      -283.9815811492  1.32E-05
    18 Broy./Diag. 0.10E+00    8.2     0.00050819      -283.9815728785  8.27E-06
    19 Broy./Diag. 0.10E+00    8.2     0.00000882      -283.9815519149  2.10E-05
    20 Broy./Diag. 0.10E+00    8.2     0.00004431      -283.9815493114  2.60E-06
    21 Broy./Diag. 0.10E+00    8.2     0.00005763      -283.9815610706 -1.18E-05
    22 Broy./Diag. 0.10E+00    8.2     0.00005452      -283.9815598725  1.20E-06
    23 Broy./Diag. 0.10E+00    8.3     0.00009526      -283.9815586966  1.18E-06
    24 Broy./Diag. 0.10E+00    8.3     0.00003871      -283.9815538684  4.83E-06
    25 Broy./Diag. 0.10E+00    8.2     0.00006162      -283.9815541545 -2.86E-07
    26 Broy./Diag. 0.10E+00    8.3     0.00008104      -283.9815566802 -2.53E-06
    27 Broy./Diag. 0.10E+00    8.2     0.00006023      -283.9815474806  9.20E-06
    28 Broy./Diag. 0.10E+00    8.2     0.00009728      -283.9815401334  7.35E-06
    29 Broy./Diag. 0.10E+00    8.2     0.00006614      -283.9815484576 -8.32E-06
    30 Broy./Diag. 0.10E+00    8.3     0.00002501      -283.9815580204 -9.56E-06
    31 Broy./Diag. 0.10E+00    8.2     0.00002069      -283.9815560503  1.97E-06
    32 Broy./Diag. 0.10E+00    8.2     0.00004547      -283.9815611524 -5.10E-06
    33 Broy./Diag. 0.10E+00    8.2     0.00004936      -283.9815688333 -7.68E-06
    34 Broy./Diag. 0.10E+00    8.3     0.00010922      -283.9815772674 -8.43E-06
    35 Broy./Diag. 0.10E+00    8.2     0.00008453      -283.9815611812  1.61E-05
    36 Broy./Diag. 0.10E+00    8.3     0.00005067      -283.9815654850 -4.30E-06
    37 Broy./Diag. 0.10E+00    8.3     0.00006091      -283.9815689514 -3.47E-06
    38 Broy./Diag. 0.10E+00    8.3     0.00012037      -283.9815712501 -2.30E-06
    39 Broy./Diag. 0.10E+00    8.3     0.00014229      -283.9815609845  1.03E-05
    40 Broy./Diag. 0.10E+00    8.3     0.00005574      -283.9815646307 -3.65E-06
    41 Broy./Diag. 0.10E+00    8.3     0.00000349      -283.9815613087  3.32E-06
    42 Broy./Diag. 0.10E+00    8.3     0.00004818      -283.9815553985  5.91E-06
    43 Broy./Diag. 0.10E+00    8.3     0.00005722      -283.9815620285 -6.63E-06
    44 Broy./Diag. 0.10E+00    8.3     0.00006410      -283.9815509950  1.10E-05
    45 Broy./Diag. 0.10E+00    8.3     0.00004145      -283.9815480888  2.91E-06
    46 Broy./Diag. 0.10E+00    8.3     0.00001612      -283.9815546075 -6.52E-06
    47 Broy./Diag. 0.10E+00    8.3     0.00005994      -283.9815546573 -4.98E-08
    48 Broy./Diag. 0.10E+00    8.3     0.00000824      -283.9815499063  4.75E-06
    49 Broy./Diag. 0.10E+00    8.3     0.00002482      -283.9815494418  4.64E-07
    50 Broy./Diag. 0.10E+00    8.2     0.00005093      -283.9815553138 -5.87E-06
    51 Broy./Diag. 0.10E+00    8.2     0.00001471      -283.9815466022  8.71E-06
    52 Broy./Diag. 0.10E+00    8.3     0.00000591      -283.9815468119 -2.10E-07
    53 Broy./Diag. 0.10E+00    8.3     0.00000168      -283.9815478796 -1.07E-06
    54 Broy./Diag. 0.10E+00    8.3     0.00000429      -283.9815487710 -8.91E-07
    55 Broy./Diag. 0.10E+00    8.3     0.00003921      -283.9815483975  3.74E-07
    56 Broy./Diag. 0.10E+00    8.2     0.00008195      -283.9815442688  4.13E-06
    57 Broy./Diag. 0.10E+00    8.2     0.00001900      -283.9815445490 -2.80E-07
    58 Broy./Diag. 0.10E+00    8.2     0.00001001      -283.9815478362 -3.29E-06
    59 Broy./Diag. 0.10E+00    8.2     0.00002442      -283.9815495726 -1.74E-06
    60 Broy./Diag. 0.10E+00    8.2     0.00002629      -283.9815540661 -4.49E-06
    61 Broy./Diag. 0.10E+00    8.3     0.00002657      -283.9815431527  1.09E-05
    62 Broy./Diag. 0.10E+00    8.2     0.00003129      -283.9815391832  3.97E-06
    63 Broy./Diag. 0.10E+00    8.3     0.00003884      -283.9815384073  7.76E-07
    64 Broy./Diag. 0.10E+00    8.3     0.00003429      -283.9815349786  3.43E-06
    65 Broy./Diag. 0.10E+00    8.3     0.00012634      -283.9815410075 -6.03E-06
    66 Broy./Diag. 0.10E+00    8.3     0.00006458      -283.9815116047  2.94E-05
    67 Broy./Diag. 0.10E+00   10.9     0.00010729      -283.9815286607 -1.71E-05
    68 Broy./Diag. 0.10E+00    9.6     0.00006277      -283.9815285871  7.36E-08
    69 Broy./Diag. 0.10E+00    8.3     0.00002934      -283.9815273436  1.24E-06
    70 Broy./Diag. 0.10E+00    8.2     0.00004114      -283.9815277352 -3.92E-07
    71 Broy./Diag. 0.10E+00    8.3     0.00004181      -283.9815239576  3.78E-06
    72 Broy./Diag. 0.10E+00    8.3     0.00005381      -283.9815284703 -4.51E-06
    73 Broy./Diag. 0.10E+00    8.2     0.00004518      -283.9815294504 -9.80E-07
    74 Broy./Diag. 0.10E+00    8.2     0.00004456      -283.9815235502  5.90E-06
    75 Broy./Diag. 0.10E+00    8.2     0.00001582      -283.9815294687 -5.92E-06
    76 Broy./Diag. 0.10E+00    9.0     0.00003960      -283.9815270495  2.42E-06
    77 Broy./Diag. 0.10E+00    8.3     0.00004868      -283.9815313130 -4.26E-06
    78 Broy./Diag. 0.10E+00    8.3     0.00004777      -283.9815336411 -2.33E-06
    79 Broy./Diag. 0.10E+00    8.2     0.00001483      -283.9815392492 -5.61E-06
    80 Broy./Diag. 0.10E+00    8.3     0.00005945      -283.9815359865  3.26E-06
    81 Broy./Diag. 0.10E+00    8.3     0.00005062      -283.9815375211 -1.53E-06
    82 Broy./Diag. 0.10E+00    8.2     0.00002372      -283.9815333845  4.14E-06
    83 Broy./Diag. 0.10E+00    8.2     0.00004656      -283.9815344972 -1.11E-06
    84 Broy./Diag. 0.10E+00    8.3     0.00004288      -283.9815309396  3.56E-06
    85 Broy./Diag. 0.10E+00    8.2     0.00004870      -283.9815296716  1.27E-06
    86 Broy./Diag. 0.10E+00    8.2     0.00000771      -283.9815312226 -1.55E-06
    87 Broy./Diag. 0.10E+00    8.2     0.00000651      -283.9815298936  1.33E-06
    88 Broy./Diag. 0.10E+00    8.3     0.00000824      -283.9815273655  2.53E-06
    89 Broy./Diag. 0.10E+00    8.2     0.00000204      -283.9815256992  1.67E-06
    90 Broy./Diag. 0.10E+00    8.2     0.00000782      -283.9815269007 -1.20E-06
    91 Broy./Diag. 0.10E+00    8.3     0.00019005      -283.9815376512 -1.08E-05
    92 Broy./Diag. 0.10E+00    8.3     0.00003516      -283.9815133944  2.43E-05
    93 Broy./Diag. 0.10E+00    8.3     0.00006989      -283.9815206688 -7.27E-06
    94 Broy./Diag. 0.10E+00    8.3     0.00010856      -283.9815341449 -1.35E-05
    95 Broy./Diag. 0.10E+00    8.3     0.00009826      -283.9815302304  3.91E-06
    96 Broy./Diag. 0.10E+00    8.3     0.00003608      -283.9815090821  2.11E-05
    97 Broy./Diag. 0.10E+00    8.2     0.00005033      -283.9815166122 -7.53E-06
    98 Broy./Diag. 0.10E+00    8.2     0.00005036      -283.9815145747  2.04E-06
    99 Broy./Diag. 0.10E+00    8.2     0.00006374      -283.9815231209 -8.55E-06
   100 Broy./Diag. 0.10E+00    8.3     0.00003841      -283.9815146618  8.46E-06

  Leaving inner SCF loop after reaching   100 steps.


  Electronic density on regular grids:       -177.0000012774       -0.0000012774
  Core density on regular grids:              176.9999999998       -0.0000000002
  Total charge density on r-space grids:       -0.0000012776
  Total charge density g-space grids:          -0.0000012776

  Overlap energy of the core charge distribution:               0.00000836868231
  Self energy of the core charge distribution:               -656.67682311856504
  Core Hamiltonian energy:                                    203.32032929288363
  Hartree energy:                                             247.60973542148739
  Exchange-correlation energy:                                -78.15382772543137
  Dispersion energy:                                           -0.07782657454377
  Electronic entropic energy:                                  -0.00311084153577
  Fermi energy:                                                -0.14402176518354

  Total energy:                                              -283.98151466181082

  outer SCF iter =   33 RMS gradient =   0.38E-04 energy =       -283.9815146618
     1 Broy./Diag. 0.10E+00   11.9     0.00031858      -283.9815154251 -7.63E-07
     2 Broy./Diag. 0.10E+00    8.3     0.00039804      -283.9815796827 -6.43E-05
     3 Broy./Diag. 0.10E+00    8.2     0.00005527      -283.9815118481  6.78E-05
     4 Broy./Diag. 0.10E+00    8.2     0.00008637      -283.9815110712  7.77E-07
     5 Broy./Diag. 0.10E+00    8.3     0.00002625      -283.9815213895 -1.03E-05
     6 Broy./Diag. 0.10E+00    8.2     0.00007497      -283.9815163085  5.08E-06
     7 Broy./Diag. 0.10E+00    8.2     0.00002847      -283.9815063189  9.99E-06
     8 Broy./Diag. 0.10E+00    8.3     0.00004188      -283.9815024053  3.91E-06
     9 Broy./Diag. 0.10E+00    8.2     0.00002101      -283.9814982984  4.11E-06
    10 Broy./Diag. 0.10E+00    8.2     0.00003676      -283.9815045592 -6.26E-06
    11 Broy./Diag. 0.10E+00    8.2     0.00006745      -283.9815096409 -5.08E-06
    12 Broy./Diag. 0.10E+00    8.2     0.00008101      -283.9814973009  1.23E-05
    13 Broy./Diag. 0.10E+00    8.2     0.00003840      -283.9814975566 -2.56E-07
    14 Broy./Diag. 0.10E+00    8.2     0.00006008      -283.9815102044 -1.26E-05
    15 Broy./Diag. 0.10E+00    8.2     0.00005685      -283.9815143071 -4.10E-06
    16 Broy./Diag. 0.10E+00    8.2     0.00004291      -283.9815258177 -1.15E-05
    17 Broy./Diag. 0.10E+00    8.6     0.00001311      -283.9815256770  1.41E-07
    18 Broy./Diag. 0.10E+00    8.2     0.00020793      -283.9815261361 -4.59E-07
    19 Broy./Diag. 0.10E+00    8.2     0.00003759      -283.9815254682  6.68E-07
    20 Broy./Diag. 0.10E+00    8.3     0.00001291      -283.9815300251 -4.56E-06
    21 Broy./Diag. 0.10E+00    8.2     0.00000471      -283.9815377426 -7.72E-06
    22 Broy./Diag. 0.10E+00    8.2     0.00002803      -283.9815422487 -4.51E-06
    23 Broy./Diag. 0.10E+00    8.3     0.00010315      -283.9815426104 -3.62E-07
    24 Broy./Diag. 0.10E+00    8.2     0.00005322      -283.9815416324  9.78E-07
    25 Broy./Diag. 0.10E+00    8.3     0.00002386      -283.9815402059  1.43E-06
    26 Broy./Diag. 0.10E+00    8.2     0.00002245      -283.9815382927  1.91E-06
    27 Broy./Diag. 0.10E+00    8.3     0.00005261      -283.9815364567  1.84E-06
    28 Broy./Diag. 0.10E+00    8.3     0.00004463      -283.9815543422 -1.79E-05
    29 Broy./Diag. 0.10E+00    8.2     0.00006738      -283.9815606371 -6.29E-06
    30 Broy./Diag. 0.10E+00    8.3     0.00002044      -283.9815409075  1.97E-05
    31 Broy./Diag. 0.10E+00    8.3     0.00001072      -283.9815225770  1.83E-05
    32 Broy./Diag. 0.10E+00    8.3     0.00020411      -283.9815168776  5.70E-06
    33 Broy./Diag. 0.10E+00    8.3     0.00027597      -283.9815386566 -2.18E-05
    34 Broy./Diag. 0.10E+00    8.2     0.00009714      -283.9814915514  4.71E-05
    35 Broy./Diag. 0.10E+00    8.3     0.00003735      -283.9814784354  1.31E-05
    36 Broy./Diag. 0.10E+00    8.3     0.00002556      -283.9814725627  5.87E-06
    37 Broy./Diag. 0.10E+00    8.3     0.00009164      -283.9814802098 -7.65E-06
    38 Broy./Diag. 0.10E+00    8.3     0.00002640      -283.9814594272  2.08E-05
    39 Broy./Diag. 0.10E+00   13.7     0.00008918      -283.9814620609 -2.63E-06
    40 Broy./Diag. 0.10E+00   11.4     0.00008862      -283.9814566055  5.46E-06
    41 Broy./Diag. 0.10E+00    8.5     0.00004826      -283.9814570807 -4.75E-07
    42 Broy./Diag. 0.10E+00    8.3     0.00004678      -283.9814562560  8.25E-07
    43 Broy./Diag. 0.10E+00    8.2     0.00001727      -283.9814619093 -5.65E-06
    44 Broy./Diag. 0.10E+00    8.3     0.00002150      -283.9814644308 -2.52E-06
    45 Broy./Diag. 0.10E+00    8.4     0.00006843      -283.9814645027 -7.19E-08
    46 Broy./Diag. 0.10E+00    8.5     0.00006191      -283.9814615948  2.91E-06
    47 Broy./Diag. 0.10E+00    8.3     0.00031457      -283.9814442352  1.74E-05
    48 Broy./Diag. 0.10E+00    8.2     0.00002179      -283.9815266369 -8.24E-05
    49 Broy./Diag. 0.10E+00    8.3     0.00006180      -283.9815240922  2.54E-06
    50 Broy./Diag. 0.10E+00    8.3     0.00002117      -283.9815214393  2.65E-06
    51 Broy./Diag. 0.10E+00    8.2     0.00000918      -283.9815252619 -3.82E-06
    52 Broy./Diag. 0.10E+00    8.3     0.00005424      -283.9815258756 -6.14E-07
    53 Broy./Diag. 0.10E+00    8.3     0.00004361      -283.9815299690 -4.09E-06
    54 Broy./Diag. 0.10E+00    8.3     0.00004260      -283.9815269721  3.00E-06
    55 Broy./Diag. 0.10E+00    8.2     0.00002047      -283.9815218236  5.15E-06
    56 Broy./Diag. 0.10E+00    8.2     0.00003601      -283.9815205581  1.27E-06
    57 Broy./Diag. 0.10E+00    8.2     0.00000456      -283.9815157262  4.83E-06
    58 Broy./Diag. 0.10E+00    8.3     0.00005213      -283.9815194145 -3.69E-06
    59 Broy./Diag. 0.10E+00    8.2     0.00017930      -283.9815235486 -4.13E-06
    60 Broy./Diag. 0.10E+00    8.3     0.00007136      -283.9814935966  3.00E-05
    61 Broy./Diag. 0.10E+00    8.2     0.00012753      -283.9815033010 -9.70E-06
    62 Broy./Diag. 0.10E+00    8.2     0.00005740      -283.9814728531  3.04E-05
    63 Broy./Diag. 0.10E+00    8.2     0.00010356      -283.9814825963 -9.74E-06
    64 Broy./Diag. 0.10E+00    8.2     0.00019103      -283.9815185482 -3.60E-05
    65 Broy./Diag. 0.10E+00    8.2     0.00001318      -283.9814734382  4.51E-05
    66 Broy./Diag. 0.10E+00    8.3     0.00005741      -283.9814730585  3.80E-07
    67 Broy./Diag. 0.10E+00    8.2     0.00006314      -283.9814718798  1.18E-06
    68 Broy./Diag. 0.10E+00    8.2     0.00009344      -283.9814800586 -8.18E-06
    69 Broy./Diag. 0.10E+00    8.2     0.00015907      -283.9814808958 -8.37E-07
-------------------------------------------------------
Primary job  terminated normally, but 1 process returned
a non-zero exit code. Per user-direction, the job has been aborted.
-------------------------------------------------------
