     129
 i =       58, E =      -709.6762745382
  C         8.6354600529       14.9952976288        0.0000734133
  C         9.8631475646       15.6823072305       -0.0003218650
  C        11.0912695935       14.9974569417       -0.0000101648
  C        12.3196504731       15.6839551298       -0.0003748121
  C        13.5474675852       14.9986320652       -0.0004988671
  C        14.7760591974       15.6843228979       -0.0004452505
  C        16.0039431713       14.9981428534       -0.0003164333
  C        17.2321456655       15.6839053493       -0.0002559537
  C        18.4600790297       14.9975008908        0.0000216606
  C        19.6882406975       15.6835700753       -0.0002161965
  C        20.9157334642       14.9973189367        0.0000110667
  C        22.1442799546       15.6830376797       -0.0002887921
  C        23.3713604001       14.9967192175       -0.0001720704
  C        24.5999965198       15.6818299063       -0.0004859204
  C        25.8272524491       14.9953089995       -0.0002302885
  C        27.0553457295       15.6808480402       -0.0005496854
  C        25.8257602088       13.5493155954        0.0004969485
  C        23.3694593013       13.5503551452        0.0003656392
  C        20.9135552618       13.5514548580        0.0003978064
  C        18.4583056089       13.5520543716        0.0001986920
  C        16.0026931363       13.5523323202       -0.0003139835
  C        14.7735198406       12.8425193397       -0.0000479114
  C        13.5461208900       13.5523589948       -0.0001161113
  C        12.3176833013       12.8420046590        0.0008834842
  C        11.0895418268       13.5515230953        0.0009307724
  C         9.8610931750       12.8410649109        0.0018601508
  C         8.6338178109       13.5500051187        0.0010061984
  C         7.4044373886       12.8397830191        0.0014617064
  C        24.5965691658       12.8395806064        0.0008661818
  C        22.1409735036       12.8406492977        0.0007103064
  C        19.6850711645       12.8419063881        0.0003921393
  C        17.2291690768       12.8425539040        0.0000212577
  C        24.5933456815       11.4062467819        0.0016025334
  C        23.3647564496       10.6944377278        0.0016150656
  C        22.1381995543       11.4069536829        0.0010908550
  C        20.9090811378       10.6949587723        0.0010290843
  C        19.6825648432       11.4077348959        0.0006247217
  C        18.4540184695       10.6956743920        0.0005468429
  C        17.2266020673       11.4087352417        0.0004650339
  C        15.9984996022       10.6970560492        0.0009409371
  C        14.7710155373       11.4094109405        0.0009970903
  C        13.5421435325       10.6975480852        0.0026726648
  C        12.3154955832       11.4088188173        0.0026177531
  C        11.0857755239       10.6961600295        0.0041463614
  C         9.8588295736       11.4071298874        0.0033274327
  C         8.6299225050       10.6933928028        0.0031765814
  C         7.4011654600       11.4059639251        0.0023657572
  C         6.1732297799       10.6936230758        0.0021302286
  C         6.1718099274        9.2631674134       -0.0010155748
  C         7.3990468837        8.5503801730       -0.0049815611
  C         8.6286743863        9.2652972999        0.0009638261
  C         9.8562480137        8.5535858101        0.0016468631
  C        11.0843779751        9.2668019248        0.0052585991
  C        12.3129511311        8.5547055164        0.0058230298
  C        13.5413205674        9.2675090420        0.0047365553
  C        14.7685101675        8.5547176301        0.0043157808
  C        15.9977191794        9.2670661526        0.0023504592
  C        17.2236327277        8.5537959852        0.0020503239
  C        18.4525773787        9.2659105327        0.0011332041
  C        19.6792316453        8.5526249425        0.0011437305
  C        20.9070400642        9.2649778462        0.0012672170
  C        22.1348183288        8.5515247859        0.0003934721
  C        23.3628529575        9.2639486314        0.0005078658
  C        22.1327829345        7.1212045749       -0.0036954712
  C        20.9030922785        6.4075868336       -0.0012813432
  C        19.6768646468        7.1216957580        0.0015372211
  C        18.4479964597        6.4084488428        0.0031325866
  C        17.2205265836        7.1231870081        0.0034461862
  C        15.9931466133        6.4109669245        0.0048422280
  C        14.7657197624        7.1251507931        0.0055390253
  C        13.5383764538        6.4140142374        0.0041043442
  C        12.3111643071        7.1255009853        0.0035599105
  C        11.0821683600        6.4138154420       -0.0082234780
  C         9.8553879353        7.1237696957       -0.0107738263
  C         8.6265600848        6.4079374877       -0.0376146635
  C         7.3966367706        7.1213315148       -0.0251002167
  C         6.1677927656        6.4087117814       -0.0371513952
  C         4.9403638732        7.1205642536       -0.0168245491
  C         4.9426248121        8.5504318293       -0.0033647059
  C         3.7104284552        6.4086264830       -0.0168493831
  C         3.7071736740        4.9751861015       -0.0349914438
  C         4.9375949075        4.2656789260       -0.0776089522
  C         6.1660165549        4.9743774767       -0.0788436860
  C         7.3988987949        4.2665914697       -0.1256607500
  C         8.6279572797        4.9796870557       -0.0900942060
  C         9.8548882723        4.2707361601       -0.0913018406
  C        11.0818557839        4.9804689899       -0.0360181790
  C        12.3092928117        4.2722736247       -0.0340160160
  C        13.5379021248        4.9811023236       -0.0055129131
  C        14.7617504990        4.2679587943       -0.0028961455
  C        15.9919525012        4.9776818286        0.0046456438
  C        17.2165583253        4.2659896824        0.0059306752
  C        18.4457477469        4.9753947392        0.0052565833
  C        19.6726878680        4.2642071013        0.0043828918
  C        20.8999043402        4.9741297635       -0.0021836807
  C        19.6721238977        2.8182913389        0.0082398592
  C        18.4443872969        2.1335299624        0.0111694813
  C        17.2180612121        2.8200815787        0.0065207172
  C        15.9889380086        2.1343749590       -0.0042666749
  C        14.7658006220        2.8222621063       -0.0163853238
  C        13.5333255100        2.1377184523       -0.0598441594
  C        12.3181354641        2.8307275009       -0.0803577279
  C        11.0824810615        2.1481126011       -0.1802698399
  C         9.8803439005        2.8370203004       -0.1936251942
  C         8.6403167567        2.0973585227       -0.3910889743
  C         6.1723786054        2.1427377136       -0.1710675337
  C         7.3823171045        2.8352926409       -0.2151213910
  C         4.9270059365        2.8199543808       -0.0956761555
  C         3.7107877616        2.1312856864       -0.0444724246
  C         2.4773493180        2.8159824757       -0.0147973164
  C         2.4814110319        4.2626708620       -0.0166589104
  C         1.2524403561        2.1316197048        0.0043339000
  H        27.0553297732       16.7698268201       -0.0010034565
  H        24.6007511311       16.7707378062       -0.0008634159
  H        22.1447521096       16.7719199501       -0.0008943058
  H        17.2324400988       16.7728607913       -0.0003440192
  H        14.7762113398       16.7732442156       -0.0000768388
  H        12.3190526415       16.7728356411       -0.0005255545
  H         9.8621070759       16.7712214191       -0.0010282118
  H         1.2504784476        1.0429547737        0.0109272547
  H         3.7107974674        1.0421200268       -0.0360887905
  O         8.6431529004        0.8873130417       -0.7832196390
  H        11.0629995684        1.0619357326       -0.2561437897
  H        13.5277813187        1.0491945004       -0.0884460386
  H        15.9869242202        1.0456175086       -0.0097677163
  H        18.4426942799        1.0447731107        0.0150044333
  H        19.6884194669       16.7724942840       -0.0007556117
  H         6.1870939454        1.0528753000       -0.0933228846
 Na         7.1847698051        0.9145991722       -2.4537474358
