 DBCSR| CPU Multiplication driver                                           BLAS (U)
 DBCSR| Multrec recursion limit                                              512 (U)
 DBCSR| Multiplication stack size                                           1000 (D)
 DBCSR| Maximum elements for images                                    UNLIMITED (U)
 DBCSR| Multiplicative factor virtual images                                   1 (U)
 DBCSR| Use multiplication densification                                       T (D)
 DBCSR| Multiplication size stacks                                             3 (U)
 DBCSR| Use memory pool for CPU allocation                                     F (U)
 DBCSR| Number of 3D layers                                               SINGLE (U)
 DBCSR| Use MPI memory allocation                                              F (U)
 DBCSR| Use RMA algorithm                                                      F (U)
 DBCSR| Use Communication thread                                               T (U)
 DBCSR| Communication thread load                                             87 (D)
 DBCSR| MPI: My process id                                                     0
 DBCSR| MPI: Number of processes                                              16
 DBCSR| OMP: Current number of threads                                         1
 DBCSR| OMP: Max number of threads                                             1
 DBCSR| Split modifier for TAS multiplication algorithm                  1.0E+00 (U)


  **** **** ******  **  PROGRAM STARTED AT               2025-08-25 12:55:31.579
 ***** ** ***  *** **   PROGRAM STARTED ON                            sebnode129
 **    ****   ******    PROGRAM STARTED BY                                luehrs
 ***** **    ** ** **   PROGRAM PROCESS ID                               2170734
  **** **  *******  **  PROGRAM STARTED IN /home/luehrs/PhD/Sodium_batteries/Sod
                                           ium-graphene-functional_groups/Epoxid

 CP2K| version string:                                       CP2K version 2023.1
 CP2K| source code revision number:                                  git:b888bd8
 CP2K| cp2kflags: omp libint fftw3 libxc elpa parallel scalapack spglib         
 CP2K| is freely available from                            https://www.cp2k.org/
 CP2K| Program compiled at                          Tue Jan 10 19:52:03 UTC 2023
 CP2K| Program compiled on                                            x86-ubc-01
 CP2K| Program compiled for                                Linux-x86_64-gfortran
 CP2K| Data directory path                                       /usr/share/cp2k
 CP2K| Input file name                                         input.zig-zag.inp

 GLOBAL| Force Environment number                                              1
 GLOBAL| Basis set file name                                      ./BASIS_MOLOPT
 GLOBAL| Potential file name                                    ./GTH_POTENTIALS
 GLOBAL| MM Potential file name                                     MM_POTENTIAL
 GLOBAL| Coordinate file name                          epoxid_sodium_relaxed.xyz
 GLOBAL| Method name                                                        CP2K
 GLOBAL| Project name                                     epoxid_sodium_BSSE_PBE
 GLOBAL| Run type                                                           BSSE
 GLOBAL| FFT library                                                       FFTW3
 GLOBAL| Diagonalization library                                            ELPA
 GLOBAL| DGEMM library                                                      BLAS
 GLOBAL| Minimum number of eigenvectors for ELPA usage                        16
 GLOBAL| Orthonormality check for eigenvectors                          DISABLED
 GLOBAL| Matrix multiplication library                                 ScaLAPACK
 GLOBAL| All-to-all communication in single precision                          F
 GLOBAL| FFTs using library dependent lengths                                  F
 GLOBAL| Grid backend                                                       AUTO
 GLOBAL| Global print level                                                  LOW
 GLOBAL| MPI I/O enabled                                                       T
 GLOBAL| Total number of message passing processes                            16
 GLOBAL| Number of threads for this process                                    1
 GLOBAL| This output is from process                                           0
 GLOBAL| Stack size for threads created by OpenMP (OMP_STACKSIZE)        default
 GLOBAL| CPU model name                          AMD EPYC 7513 32-Core Processor

 MEMORY| system memory details [Kb]
 MEMORY|                        rank 0           min           max       average
 MEMORY| MemTotal            131832300     131832300     131832300     131832300
 MEMORY| MemFree             128006472     128006472     128006472     128006472
 MEMORY| Buffers                  8060          8060          8060          8060
 MEMORY| Cached                  93660         93660         93660         93660
 MEMORY| Slab                   780236        780236        780236        780236
 MEMORY| SReclaimable           129356        129356        129356        129356
 MEMORY| MemLikelyFree       128237548     128237548     128237548     128237548


 GENERATE|  Preliminary Number of Bonds generated:                             0
 GENERATE|  Achieved consistency in connectivity generation.

 *******************************************************************************
 *******************************************************************************
 **                                                                           **
 **     #####                         ##              ##                      **
 **    ##   ##            ##          ##              ##                      **
 **   ##     ##                       ##            ######                    **
 **   ##     ##  ##   ##  ##   #####  ##  ##   ####   ##    #####    #####    **
 **   ##     ##  ##   ##  ##  ##      ## ##   ##      ##   ##   ##  ##   ##   **
 **   ##  ## ##  ##   ##  ##  ##      ####     ###    ##   ######   ######    **
 **    ##  ###   ##   ##  ##  ##      ## ##      ##   ##   ##       ##        **
 **     #######   #####   ##   #####  ##  ##  ####    ##    #####   ##        **
 **           ##                                                    ##        **
 **                                                                           **
 **                                                ... make the atoms dance   **
 **                                                                           **
 **            Copyright (C) by CP2K developers group (2000-2022)             **
 **                      J. Chem. Phys. 152, 194103 (2020)                    **
 **                                                                           **
 *******************************************************************************


 TOTAL NUMBERS AND MAXIMUM NUMBERS

  Total number of            - Atomic kinds:                                   3
                             - Atoms:                                        114
                             - Shell sets:                                   114
                             - Shells:                                       570
                             - Primitive Cartesian functions:                572
                             - Cartesian basis functions:                   1591
                             - Spherical basis functions:                   1478

  Maximum angular momentum of- Orbital basis functions:                        2
                             - Local part of the GTH pseudopotential:          2
                             - Non-local part of the GTH pseudopotential:      1


 SCF PARAMETERS         Density guess:                                    ATOMIC
                        --------------------------------------------------------
                        max_scf:                                             100
                        max_scf_history:                                       0
                        max_diis:                                              4
                        --------------------------------------------------------
                        eps_scf:                                        3.00E-07
                        eps_scf_history:                                0.00E+00
                        eps_diis:                                       1.00E-01
                        eps_eigval:                                     1.00E-05
                        --------------------------------------------------------
                        level_shift [a.u.]:                             0.000000
                        added MOs                                       100  100
                        --------------------------------------------------------
                        Mixing method:                            BROYDEN_MIXING
                                                charge density mixing in g-space
                        --------------------------------------------------------
                        Smear method:                                FERMI_DIRAC
                        Electronic temperature [K]:                        300.0
                        Electronic temperature [a.u.]:                  9.50E-04
                        Accuracy threshold:                             1.00E-10
                        --------------------------------------------------------
                        Outer loop SCF in use 
                        No variables optimised in outer loop
                        eps_scf                                         1.00E-06
                        max_scf                                               30
                        DIIS optimization
                        DIIS buffer length                                     3
                        step_size                                       5.00E-01

 -------------------------------------------------------------------------------
 -                                                                             -
 -  BSSE CALCULATION         FRAGMENT CONF: 10        FRAGMENT SUBCONF: 10     -
 -                           CHARGE =     0           MULTIPLICITY =     0     -
 -                                                                             -
 -                 ATOM INDEX                              ATOM NAME           -
 -                 ----------                              ---------           -
 -                      1                                   C                  -
 -                      2                                   C                  -
 -                      3                                   C                  -
 -                      4                                   C                  -
 -                      5                                   C                  -
 -                      6                                   C                  -
 -                      7                                   C                  -
 -                      8                                   C                  -
 -                      9                                   C                  -
 -                     10                                   C                  -
 -                     11                                   C                  -
 -                     12                                   C                  -
 -                     13                                   C                  -
 -                     14                                   C                  -
 -                     15                                   C                  -
 -                     16                                   C                  -
 -                     17                                   C                  -
 -                     18                                   C                  -
 -                     19                                   C                  -
 -                     20                                   C                  -
 -                     21                                   C                  -
 -                     22                                   C                  -
 -                     23                                   C                  -
 -                     24                                   C                  -
 -                     25                                   C                  -
 -                     26                                   C                  -
 -                     27                                   C                  -
 -                     28                                   C                  -
 -                     29                                   C                  -
 -                     30                                   C                  -
 -                     31                                   C                  -
 -                     32                                   C                  -
 -                     33                                   C                  -
 -                     34                                   C                  -
 -                     35                                   C                  -
 -                     36                                   C                  -
 -                     37                                   C                  -
 -                     38                                   C                  -
 -                     39                                   C                  -
 -                     40                                   C                  -
 -                     41                                   C                  -
 -                     42                                   C                  -
 -                     43                                   C                  -
 -                     44                                   C                  -
 -                     45                                   C                  -
 -                     46                                   C                  -
 -                     47                                   C                  -
 -                     48                                   C                  -
 -                     49                                   C                  -
 -                     50                                   C                  -
 -                     51                                   C                  -
 -                     52                                   C                  -
 -                     53                                   C                  -
 -                     54                                   C                  -
 -                     55                                   C                  -
 -                     56                                   C                  -
 -                     57                                   C                  -
 -                     58                                   C                  -
 -                     59                                   C                  -
 -                     60                                   C                  -
 -                     61                                   C                  -
 -                     62                                   C                  -
 -                     63                                   C                  -
 -                     64                                   C                  -
 -                     65                                   C                  -
 -                     66                                   C                  -
 -                     67                                   C                  -
 -                     68                                   C                  -
 -                     69                                   C                  -
 -                     70                                   C                  -
 -                     71                                   C                  -
 -                     72                                   C                  -
 -                     73                                   C                  -
 -                     74                                   C                  -
 -                     75                                   C                  -
 -                     76                                   C                  -
 -                     77                                   C                  -
 -                     78                                   C                  -
 -                     79                                   C                  -
 -                     80                                   C                  -
 -                     81                                   C                  -
 -                     82                                   C                  -
 -                     83                                   C                  -
 -                     84                                   C                  -
 -                     85                                   C                  -
 -                     86                                   C                  -
 -                     87                                   C                  -
 -                     88                                   C                  -
 -                     89                                   C                  -
 -                     90                                   C                  -
 -                     91                                   C                  -
 -                     92                                   C                  -
 -                     93                                   C                  -
 -                     94                                   C                  -
 -                     95                                   C                  -
 -                     96                                   C                  -
 -                     97                                   C                  -
 -                     98                                   C                  -
 -                     99                                   C                  -
 -                    100                                   C                  -
 -                    101                                   C                  -
 -                    102                                   C                  -
 -                    103                                   C                  -
 -                    104                                   C                  -
 -                    105                                   C                  -
 -                    106                                   C                  -
 -                    107                                   C                  -
 -                    108                                   C                  -
 -                    109                                   C                  -
 -                    110                                   C                  -
 -                    111                                   C                  -
 -                    112                                   C                  -
 -                    113                                   O                  -
 -------------------------------------------------------------------------------

 *******************************************************************************
 *******************************************************************************
 **                                                                           **
 **     #####                         ##              ##                      **
 **    ##   ##            ##          ##              ##                      **
 **   ##     ##                       ##            ######                    **
 **   ##     ##  ##   ##  ##   #####  ##  ##   ####   ##    #####    #####    **
 **   ##     ##  ##   ##  ##  ##      ## ##   ##      ##   ##   ##  ##   ##   **
 **   ##  ## ##  ##   ##  ##  ##      ####     ###    ##   ######   ######    **
 **    ##  ###   ##   ##  ##  ##      ## ##      ##   ##   ##       ##        **
 **     #######   #####   ##   #####  ##  ##  ####    ##    #####   ##        **
 **           ##                                                    ##        **
 **                                                                           **
 **                                                ... make the atoms dance   **
 **                                                                           **
 **            Copyright (C) by CP2K developers group (2000-2022)             **
 **                      J. Chem. Phys. 152, 194103 (2020)                    **
 **                                                                           **
 *******************************************************************************


 TOTAL NUMBERS AND MAXIMUM NUMBERS

  Total number of            - Atomic kinds:                                   2
                             - Atoms:                                        113
                             - Shell sets:                                   113
                             - Shells:                                       565
                             - Primitive Cartesian functions:                565
                             - Cartesian basis functions:                   1582
                             - Spherical basis functions:                   1469

  Maximum angular momentum of- Orbital basis functions:                        2
                             - Local part of the GTH pseudopotential:          2
                             - Non-local part of the GTH pseudopotential:      0


 SCF PARAMETERS         Density guess:                                    ATOMIC
                        --------------------------------------------------------
                        max_scf:                                             100
                        max_scf_history:                                       0
                        max_diis:                                              4
                        --------------------------------------------------------
                        eps_scf:                                        3.00E-07
                        eps_scf_history:                                0.00E+00
                        eps_diis:                                       1.00E-01
                        eps_eigval:                                     1.00E-05
                        --------------------------------------------------------
                        level_shift [a.u.]:                             0.000000
                        added MOs                                       100  100
                        --------------------------------------------------------
                        Mixing method:                            BROYDEN_MIXING
                                                charge density mixing in g-space
                        --------------------------------------------------------
                        Smear method:                                FERMI_DIRAC
                        Electronic temperature [K]:                        300.0
                        Electronic temperature [a.u.]:                  9.50E-04
                        Accuracy threshold:                             1.00E-10
                        --------------------------------------------------------
                        Outer loop SCF in use 
                        No variables optimised in outer loop
                        eps_scf                                         1.00E-06
                        max_scf                                               30
                        DIIS optimization
                        DIIS buffer length                                     3
                        step_size                                       5.00E-01

 Spin 1

 Number of electrons:                                                        227
 Number of occupied orbitals:                                                227
 Number of molecular orbitals:                                               327

 Spin 2

 Number of electrons:                                                        227
 Number of occupied orbitals:                                                227
 Number of molecular orbitals:                                               327

 Number of orbital functions:                                               1469
 Number of independent orbital functions:                                   1469

 Extrapolation method: initial_guess


 SCF WAVEFUNCTION OPTIMIZATION

  Step     Update method      Time    Convergence         Total energy    Change
  ------------------------------------------------------------------------------
     1 NoMix/Diag. 0.10E+00    2.6     0.47246322      -649.7421885888 -6.50E+02
     2 Broy./Diag. 0.10E+00    3.9     0.02289908      -623.6292920683  2.61E+01
     3 Broy./Diag. 0.10E+00    4.0     0.20319383      -641.3915549789 -1.78E+01
     4 Broy./Diag. 0.10E+00    4.0     0.02669589      -650.1660145157 -8.77E+00
     5 Broy./Diag. 0.10E+00    4.1     0.07259521      -652.0466523885 -1.88E+00
     6 Broy./Diag. 0.10E+00    4.1     0.00188426      -652.6603166897 -6.14E-01
     7 Broy./Diag. 0.10E+00    4.2     0.00837164      -652.8439330586 -1.84E-01
     8 Broy./Diag. 0.10E+00    4.2     0.00054750      -653.3044926991 -4.61E-01
     9 Broy./Diag. 0.10E+00    4.3     0.00297871      -653.5237425549 -2.19E-01
    10 Broy./Diag. 0.10E+00    4.4     0.00022670      -653.7016701312 -1.78E-01
    11 Broy./Diag. 0.10E+00    4.4     0.00133812      -653.7581801011 -5.65E-02
    12 Broy./Diag. 0.10E+00    4.4     0.00014035      -653.8511149523 -9.29E-02
    13 Broy./Diag. 0.10E+00    4.4     0.00061655      -653.8283501372  2.28E-02
    14 Broy./Diag. 0.10E+00    4.4     0.00004291      -653.8474246196 -1.91E-02
    15 Broy./Diag. 0.10E+00    4.4     0.00026913      -653.8280190116  1.94E-02
    16 Broy./Diag. 0.10E+00    4.4     0.00011265      -653.8467470516 -1.87E-02
    17 Broy./Diag. 0.10E+00    4.4     0.00016374      -653.8639467146 -1.72E-02
    18 Broy./Diag. 0.10E+00    4.4     0.00014578      -653.8721592730 -8.21E-03
    19 Broy./Diag. 0.10E+00    4.4     0.00017185      -653.8831298968 -1.10E-02
    20 Broy./Diag. 0.10E+00    4.4     0.00002966      -653.8883836863 -5.25E-03
    21 Broy./Diag. 0.10E+00    4.4     0.00008324      -653.8911743430 -2.79E-03
    22 Broy./Diag. 0.10E+00    4.4     0.00001660      -653.8937462340 -2.57E-03
    23 Broy./Diag. 0.10E+00    4.4     0.00005408      -653.8913689697  2.38E-03
    24 Broy./Diag. 0.10E+00    4.4     0.00002163      -653.8912474114  1.22E-04
    25 Broy./Diag. 0.10E+00    4.4     0.00003657      -653.8915536390 -3.06E-04
    26 Broy./Diag. 0.10E+00    4.4     0.00000658      -653.8906437405  9.10E-04
    27 Broy./Diag. 0.10E+00    4.4     0.00001723      -653.8890893410  1.55E-03
    28 Broy./Diag. 0.10E+00    4.4     0.00001753      -653.8898162102 -7.27E-04
    29 Broy./Diag. 0.10E+00    4.4     0.00001876      -653.8911397930 -1.32E-03
    30 Broy./Diag. 0.10E+00    4.4     0.00001899      -653.8917861543 -6.46E-04
    31 Broy./Diag. 0.10E+00    4.4     0.00000561      -653.8922445222 -4.58E-04
    32 Broy./Diag. 0.10E+00    4.4     0.00000625      -653.8927082161 -4.64E-04
    33 Broy./Diag. 0.10E+00    4.4     0.00000814      -653.8933332812 -6.25E-04
    34 Broy./Diag. 0.10E+00    4.4     0.00000419      -653.8937434617 -4.10E-04
    35 Broy./Diag. 0.10E+00    4.4     0.00000583      -653.8938488509 -1.05E-04
    36 Broy./Diag. 0.10E+00    4.4     0.00000144      -653.8942608963 -4.12E-04
    37 Broy./Diag. 0.10E+00    4.4     0.00000313      -653.8946394385 -3.79E-04
    38 Broy./Diag. 0.10E+00    4.4     0.00000136      -653.8947088909 -6.95E-05
    39 Broy./Diag. 0.10E+00    4.4     0.00000129      -653.8945992049  1.10E-04
    40 Broy./Diag. 0.10E+00    4.4     0.00000283      -653.8946346631 -3.55E-05
    41 Broy./Diag. 0.10E+00    4.4     0.00000150      -653.8947194507 -8.48E-05
    42 Broy./Diag. 0.10E+00    4.4     0.00000223      -653.8947547428 -3.53E-05
    43 Broy./Diag. 0.10E+00    4.4     0.00000095      -653.8947605042 -5.76E-06
    44 Broy./Diag. 0.10E+00    4.4     0.00000033      -653.8947709447 -1.04E-05
    45 Broy./Diag. 0.10E+00    4.4     0.00000094      -653.8948236602 -5.27E-05
    46 Broy./Diag. 0.10E+00    4.4     0.00000024      -653.8948801602 -5.65E-05

  *** SCF run converged in    46 steps ***


  Electronic density on regular grids:       -453.9999999730        0.0000000270
  Core density on regular grids:              453.9999999996       -0.0000000004
  Total charge density on r-space grids:        0.0000000266
  Total charge density g-space grids:           0.0000000266

  Overlap energy of the core charge distribution:               0.00001884602466
  Self energy of the core charge distribution:              -1535.04709487670243
  Core Hamiltonian energy:                                    479.87565385930850
  Hartree energy:                                             600.68932436667751
  Exchange-correlation energy:                               -199.26923119739098
  Dispersion energy:                                           -0.14355115775816
  Electronic entropic energy:                                  -0.00000000036337
  Fermi energy:                                                -0.10676962719982

  Total energy:                                              -653.89488016020414

  outer SCF iter =    1 RMS gradient =   0.24E-06 energy =       -653.8948801602
  outer SCF loop converged in   1 iterations or   46 steps


  Integrated absolute spin density  :                               0.0000000008
  WARNING: S**2 computation does not yet treat fractional occupied orbitals

 *** WARNING in qs_loc_utils.F:1500 :: User requested the calculation of ***
 *** the localized wavefunction but the section LOCALIZE was not         ***
 *** specified. Localization will not be performed!                      ***


 -------------------------------------------------------------------------------
 -                                                                             -
 -  BSSE CALCULATION         FRAGMENT CONF: 01        FRAGMENT SUBCONF: 01     -
 -                           CHARGE =     0           MULTIPLICITY =     0     -
 -                                                                             -
 -                 ATOM INDEX                              ATOM NAME           -
 -                 ----------                              ---------           -
 -                    114                                   Na                 -
 -------------------------------------------------------------------------------

 *******************************************************************************
 *******************************************************************************
 **                                                                           **
 **     #####                         ##              ##                      **
 **    ##   ##            ##          ##              ##                      **
 **   ##     ##                       ##            ######                    **
 **   ##     ##  ##   ##  ##   #####  ##  ##   ####   ##    #####    #####    **
 **   ##     ##  ##   ##  ##  ##      ## ##   ##      ##   ##   ##  ##   ##   **
 **   ##  ## ##  ##   ##  ##  ##      ####     ###    ##   ######   ######    **
 **    ##  ###   ##   ##  ##  ##      ## ##      ##   ##   ##       ##        **
 **     #######   #####   ##   #####  ##  ##  ####    ##    #####   ##        **
 **           ##                                                    ##        **
 **                                                                           **
 **                                                ... make the atoms dance   **
 **                                                                           **
 **            Copyright (C) by CP2K developers group (2000-2022)             **
 **                      J. Chem. Phys. 152, 194103 (2020)                    **
 **                                                                           **
 *******************************************************************************

 *** WARNING in qs_environment.F:1470 :: More ADDED_MOs requested for beta ***
 *** spin than available.                                                  ***


 *** WARNING in qs_environment.F:1486 :: More added MOs requested than     ***
 *** available. The full set of unoccupied MOs will be used. Use           ***
 *** 'ADDED_MOS -1' to always use all available MOs and to get rid of this ***
 *** warning.                                                              ***



 TOTAL NUMBERS AND MAXIMUM NUMBERS

  Total number of            - Atomic kinds:                                   1
                             - Atoms:                                          1
                             - Shell sets:                                     1
                             - Shells:                                         5
                             - Primitive Cartesian functions:                  7
                             - Cartesian basis functions:                      9
                             - Spherical basis functions:                      9

  Maximum angular momentum of- Orbital basis functions:                        1
                             - Local part of the GTH pseudopotential:          2
                             - Non-local part of the GTH pseudopotential:      1


 SCF PARAMETERS         Density guess:                                    ATOMIC
                        --------------------------------------------------------
                        max_scf:                                             100
                        max_scf_history:                                       0
                        max_diis:                                              4
                        --------------------------------------------------------
                        eps_scf:                                        3.00E-07
                        eps_scf_history:                                0.00E+00
                        eps_diis:                                       1.00E-01
                        eps_eigval:                                     1.00E-05
                        --------------------------------------------------------
                        level_shift [a.u.]:                             0.000000
                        added MOs                                         4    5
                        --------------------------------------------------------
                        Mixing method:                            BROYDEN_MIXING
                                                charge density mixing in g-space
                        --------------------------------------------------------
                        Smear method:                                FERMI_DIRAC
                        Electronic temperature [K]:                        300.0
                        Electronic temperature [a.u.]:                  9.50E-04
                        Accuracy threshold:                             1.00E-10
                        --------------------------------------------------------
                        Outer loop SCF in use 
                        No variables optimised in outer loop
                        eps_scf                                         1.00E-06
                        max_scf                                               30
                        DIIS optimization
                        DIIS buffer length                                     3
                        step_size                                       5.00E-01

 Spin 1

 Number of electrons:                                                          5
 Number of occupied orbitals:                                                  5
 Number of molecular orbitals:                                                 9

 Spin 2

 Number of electrons:                                                          4
 Number of occupied orbitals:                                                  4
 Number of molecular orbitals:                                                 9

 Number of orbital functions:                                                  9
 Number of independent orbital functions:                                      9

 Extrapolation method: initial_guess


 SCF WAVEFUNCTION OPTIMIZATION

  Step     Update method      Time    Convergence         Total energy    Change
  ------------------------------------------------------------------------------
     1 NoMix/Diag. 0.10E+00    0.7     0.42030255       -47.1729750826 -4.72E+01
     2 Broy./Diag. 0.10E+00    1.7     0.00652462       -47.1319707117  4.10E-02
     3 Broy./Diag. 0.10E+00    1.7     0.02138162       -47.1735988223 -4.16E-02
     4 Broy./Diag. 0.10E+00    1.8     0.00032132       -47.1651076829  8.49E-03
     5 Broy./Diag. 0.10E+00    1.8     0.12536527       -47.1777598342 -1.27E-02
     6 Broy./Diag. 0.10E+00    1.9     0.01869770       -46.7639716079  4.14E-01
     7 Broy./Diag. 0.10E+00    1.9     0.00465766       -46.7470692121  1.69E-02
     8 Broy./Diag. 0.10E+00    2.0     0.01504384       -46.7537857370 -6.72E-03
     9 Broy./Diag. 0.10E+00    2.1     0.04439376       -46.8536418196 -9.99E-02
    10 Broy./Diag. 0.10E+00    2.1     0.01704238       -47.0160498949 -1.62E-01
    11 Broy./Diag. 0.10E+00    2.1     0.00547794       -47.0885905335 -7.25E-02
    12 Broy./Diag. 0.10E+00    2.1     0.01988000       -47.1151244307 -2.65E-02
    13 Broy./Diag. 0.10E+00    2.1     0.01750188       -47.1887404221 -7.36E-02
    14 Broy./Diag. 0.10E+00    2.1     0.00453190       -47.2301923512 -4.15E-02
    15 Broy./Diag. 0.10E+00    2.1     0.01428359       -47.2049242468  2.53E-02
    16 Broy./Diag. 0.10E+00    2.1     0.00406343       -47.2569508508 -5.20E-02
    17 Broy./Diag. 0.10E+00    2.1     0.00109934       -47.2643360198 -7.39E-03
    18 Broy./Diag. 0.10E+00    2.1     0.00273093       -47.2799496991 -1.56E-02
    19 Broy./Diag. 0.10E+00    2.1     0.00444438       -47.2936581087 -1.37E-02
    20 Broy./Diag. 0.10E+00    2.1     0.00180495       -47.3117345121 -1.81E-02
    21 Broy./Diag. 0.10E+00    2.1     0.00011375       -47.3130891328 -1.35E-03
    22 Broy./Diag. 0.10E+00    2.1     0.00013762       -47.3154652618 -2.38E-03
    23 Broy./Diag. 0.10E+00    2.1     0.00017840       -47.3161158353 -6.51E-04
    24 Broy./Diag. 0.10E+00    2.1     0.01817474       -47.2892650219  2.69E-02
    25 Broy./Diag. 0.10E+00    2.1     0.00403877       -47.1996123847  8.97E-02
    26 Broy./Diag. 0.10E+00    2.1     0.00074810       -47.1896153087  1.00E-02
    27 Broy./Diag. 0.10E+00    2.1     0.00008894       -47.1903509466 -7.36E-04
    28 Broy./Diag. 0.10E+00    2.1     0.00124718       -47.1893006692  1.05E-03
    29 Broy./Diag. 0.10E+00    2.1     0.00222946       -47.1994322488 -1.01E-02
    30 Broy./Diag. 0.10E+00    2.1     0.00139287       -47.2077395221 -8.31E-03
    31 Broy./Diag. 0.10E+00    2.1     0.00350567       -47.2126216423 -4.88E-03
    32 Broy./Diag. 0.10E+00    2.1     0.01476289       -47.2257463465 -1.31E-02
    33 Broy./Diag. 0.10E+00    2.1     0.00045263       -47.2920058649 -6.63E-02
    34 Broy./Diag. 0.10E+00    2.1     0.00021657       -47.3051309352 -1.31E-02
    35 Broy./Diag. 0.10E+00    2.1     0.00008819       -47.3072653581 -2.13E-03
    36 Broy./Diag. 0.10E+00    2.1     0.00023927       -47.3144750007 -7.21E-03
    37 Broy./Diag. 0.10E+00    2.1     0.00116386       -47.2938132413  2.07E-02
    38 Broy./Diag. 0.10E+00    2.1     0.00051785       -47.2662572848  2.76E-02
    39 Broy./Diag. 0.10E+00    2.1     0.00147303       -47.2374672655  2.88E-02
    40 Broy./Diag. 0.10E+00    2.1     0.00028289       -47.2101706743  2.73E-02
    41 Broy./Diag. 0.10E+00    2.1     0.00045740       -47.1792276204  3.09E-02
    42 Broy./Diag. 0.10E+00    2.1     0.00019118       -47.1725977567  6.63E-03
    43 Broy./Diag. 0.10E+00    2.1     0.00019161       -47.1659548116  6.64E-03
    44 Broy./Diag. 0.10E+00    2.1     0.00035053       -47.1702478454 -4.29E-03
    45 Broy./Diag. 0.10E+00    2.1     0.00012039       -47.1717745909 -1.53E-03
    46 Broy./Diag. 0.10E+00    2.1     0.00018469       -47.1682725529  3.50E-03
    47 Broy./Diag. 0.10E+00    2.1     0.00032056       -47.1669648318  1.31E-03
    48 Broy./Diag. 0.10E+00    2.1     0.00017614       -47.1715491787 -4.58E-03
    49 Broy./Diag. 0.10E+00    2.1     0.00020999       -47.1680456003  3.50E-03
    50 Broy./Diag. 0.10E+00    2.1     0.00050133       -47.1665669775  1.48E-03
    51 Broy./Diag. 0.10E+00    2.1     0.00044449       -47.1561062802  1.05E-02
    52 Broy./Diag. 0.10E+00    2.1     0.00018266       -47.1574904944 -1.38E-03
    53 Broy./Diag. 0.10E+00    2.1     0.00007487       -47.1623342159 -4.84E-03
    54 Broy./Diag. 0.10E+00    2.1     0.00003383       -47.1647577322 -2.42E-03
    55 Broy./Diag. 0.10E+00    2.1     0.00002091       -47.1658047339 -1.05E-03
    56 Broy./Diag. 0.10E+00    2.1     0.00000460       -47.1662667309 -4.62E-04
    57 Broy./Diag. 0.10E+00    2.1     0.00013541       -47.1668271029 -5.60E-04
    58 Broy./Diag. 0.10E+00    2.1     0.00032076       -47.1669918176 -1.65E-04
    59 Broy./Diag. 0.10E+00    2.1     0.00013153       -47.1669088637  8.30E-05
    60 Broy./Diag. 0.10E+00    2.1     0.00012820       -47.1665369346  3.72E-04
    61 Broy./Diag. 0.10E+00    2.1     0.00000630       -47.1661345643  4.02E-04
    62 Broy./Diag. 0.10E+00    2.1     0.00004376       -47.1663049929 -1.70E-04
    63 Broy./Diag. 0.10E+00    2.1     0.00000993       -47.1663941228 -8.91E-05
    64 Broy./Diag. 0.10E+00    2.1     0.00004948       -47.1665561664 -1.62E-04
    65 Broy./Diag. 0.10E+00    2.1     0.00002545       -47.1674046193 -8.48E-04
    66 Broy./Diag. 0.10E+00    2.1     0.00006539       -47.1676476122 -2.43E-04
    67 Broy./Diag. 0.10E+00    2.1     0.00001470       -47.1673767860  2.71E-04
    68 Broy./Diag. 0.10E+00    2.1     0.00002873       -47.1671307124  2.46E-04
    69 Broy./Diag. 0.10E+00    2.1     0.00003002       -47.1669108761  2.20E-04
    70 Broy./Diag. 0.10E+00    2.1     0.00005835       -47.1667779792  1.33E-04
    71 Broy./Diag. 0.10E+00    2.1     0.00001162       -47.1667362755  4.17E-05
    72 Broy./Diag. 0.10E+00    2.1     0.00001356       -47.1669921800 -2.56E-04
    73 Broy./Diag. 0.10E+00    2.1     0.00000887       -47.1670065665 -1.44E-05
    74 Broy./Diag. 0.10E+00    2.1     0.00002003       -47.1669933102  1.33E-05
    75 Broy./Diag. 0.10E+00    2.1     0.00001161       -47.1669081188  8.52E-05
    76 Broy./Diag. 0.10E+00    2.1     0.00001420       -47.1668675718  4.05E-05
    77 Broy./Diag. 0.10E+00    2.1     0.00006594       -47.1668945247 -2.70E-05
    78 Broy./Diag. 0.10E+00    2.1     0.00008984       -47.1671240370 -2.30E-04
    79 Broy./Diag. 0.10E+00    2.1     0.00000490       -47.1667826870  3.41E-04
    80 Broy./Diag. 0.10E+00    2.1     0.00003280       -47.1669037231 -1.21E-04
    81 Broy./Diag. 0.10E+00    2.1     0.00002058       -47.1670517628 -1.48E-04
    82 Broy./Diag. 0.10E+00    2.1     0.00001432       -47.1669882669  6.35E-05
    83 Broy./Diag. 0.10E+00    2.1     0.00000396       -47.1669676763  2.06E-05
    84 Broy./Diag. 0.10E+00    2.1     0.00000127       -47.1669875356 -1.99E-05
    85 Broy./Diag. 0.10E+00    2.1     0.00001058       -47.1669963175 -8.78E-06
    86 Broy./Diag. 0.10E+00    2.1     0.00006446       -47.1670141545 -1.78E-05
    87 Broy./Diag. 0.10E+00    2.1     0.00001713       -47.1667947947  2.19E-04
    88 Broy./Diag. 0.10E+00    2.1     0.00007689       -47.1668600325 -6.52E-05
    89 Broy./Diag. 0.10E+00    2.1     0.00001744       -47.1671288224 -2.69E-04
    90 Broy./Diag. 0.10E+00    2.2     0.00005792       -47.1672207359 -9.19E-05
    91 Broy./Diag. 0.10E+00    2.1     0.00007830       -47.1674445526 -2.24E-04
    92 Broy./Diag. 0.10E+00    2.1     0.00003675       -47.1677721420 -3.28E-04
    93 Broy./Diag. 0.10E+00    2.1     0.00008358       -47.1679344983 -1.62E-04
    94 Broy./Diag. 0.10E+00    2.1     0.00001298       -47.1682408606 -3.06E-04
    95 Broy./Diag. 0.10E+00    2.1     0.00002127       -47.1683056334 -6.48E-05
    96 Broy./Diag. 0.10E+00    2.1     0.00009767       -47.1683773420 -7.17E-05
    97 Broy./Diag. 0.10E+00    2.1     0.00005892       -47.1689001443 -5.23E-04
    98 Broy./Diag. 0.10E+00    2.1     0.00016040       -47.1690503286 -1.50E-04
    99 Broy./Diag. 0.10E+00    2.1     0.00006540       -47.1697411096 -6.91E-04
   100 Broy./Diag. 0.10E+00    2.1     0.00008925       -47.1693626121  3.78E-04

  Leaving inner SCF loop after reaching   100 steps.


  Electronic density on regular grids:         -9.0001207080       -0.0001207080
  Core density on regular grids:                9.0000000000       -0.0000000000
  Total charge density on r-space grids:       -0.0001207080
  Total charge density g-space grids:          -0.0001207080

  Overlap energy of the core charge distribution:               0.00000000000000
  Self energy of the core charge distribution:                -96.60649019442629
  Core Hamiltonian energy:                                     29.76589669326958
  Hartree energy:                                              26.72565888520070
  Exchange-correlation energy:                                 -7.05442453258158
  Dispersion energy:                                           -0.00000346358047
  Electronic entropic energy:                                  -0.00000000000000
  Fermi energy:                                                -0.04993180655420

  Total energy:                                               -47.16936261211805

  outer SCF iter =    1 RMS gradient =   0.89E-04 energy =        -47.1693626121
     1 Broy./Diag. 0.10E+00    3.4     0.00094059       -47.1669406177  2.42E-03
     2 Broy./Diag. 0.10E+00    2.1     0.00123520       -47.1732645488 -6.32E-03
     3 Broy./Diag. 0.10E+00    2.1     0.00023700       -47.1680318635  5.23E-03
     4 Broy./Diag. 0.10E+00    2.1     0.00011682       -47.1690349110 -1.00E-03
     5 Broy./Diag. 0.10E+00    2.1     0.00004489       -47.1694677079 -4.33E-04
     6 Broy./Diag. 0.10E+00    2.1     0.00001255       -47.1698515329 -3.84E-04
     7 Broy./Diag. 0.10E+00    2.1     0.00000541       -47.1699554430 -1.04E-04
     8 Broy./Diag. 0.10E+00    2.1     0.00000495       -47.1698719845  8.35E-05
     9 Broy./Diag. 0.10E+00    2.1     0.00002642       -47.1696909841  1.81E-04
    10 Broy./Diag. 0.10E+00    2.1     0.00003748       -47.1697985183 -1.08E-04
    11 Broy./Diag. 0.10E+00    2.1     0.00001958       -47.1696491618  1.49E-04
    12 Broy./Diag. 0.10E+00    2.1     0.00000891       -47.1695632150  8.59E-05
    13 Broy./Diag. 0.10E+00    2.1     0.00005543       -47.1694566089  1.07E-04
    14 Broy./Diag. 0.10E+00    2.1     0.00002737       -47.1697157023 -2.59E-04
    15 Broy./Diag. 0.10E+00    2.1     0.00002938       -47.1701631293 -4.47E-04
    16 Broy./Diag. 0.10E+00    2.1     0.00000177       -47.1703042229 -1.41E-04
    17 Broy./Diag. 0.10E+00    2.1     0.00005193       -47.1699805291  3.24E-04
    18 Broy./Diag. 0.10E+00    2.1     0.00001625       -47.1699983565 -1.78E-05
    19 Broy./Diag. 0.10E+00    2.1     0.00000758       -47.1697525031  2.46E-04
    20 Broy./Diag. 0.10E+00    2.1     0.00000209       -47.1696404703  1.12E-04
    21 Broy./Diag. 0.10E+00    2.1     0.00001644       -47.1687753886  8.65E-04
    22 Broy./Diag. 0.10E+00    2.1     0.00007344       -47.1674566557  1.32E-03
    23 Broy./Diag. 0.10E+00    2.1     0.00001976       -47.1671581705  2.98E-04
    24 Broy./Diag. 0.10E+00    2.1     0.00001863       -47.1670274495  1.31E-04
    25 Broy./Diag. 0.10E+00    2.1     0.00001931       -47.1669347849  9.27E-05
    26 Broy./Diag. 0.10E+00    2.1     0.00002644       -47.1669391517 -4.37E-06
    27 Broy./Diag. 0.10E+00    2.1     0.00000734       -47.1669150942  2.41E-05
    28 Broy./Diag. 0.10E+00    2.1     0.00002116       -47.1670432154 -1.28E-04
    29 Broy./Diag. 0.10E+00    2.1     0.00002828       -47.1670101318  3.31E-05
    30 Broy./Diag. 0.10E+00    2.1     0.00002964       -47.1669210015  8.91E-05
    31 Broy./Diag. 0.10E+00    2.1     0.00001743       -47.1669792932 -5.83E-05
    32 Broy./Diag. 0.10E+00    2.1     0.00002061       -47.1667517517  2.28E-04
    33 Broy./Diag. 0.10E+00    2.1     0.00001599       -47.1666950687  5.67E-05
    34 Broy./Diag. 0.10E+00    2.1     0.00000529       -47.1669282297 -2.33E-04
    35 Broy./Diag. 0.10E+00    2.1     0.00000790       -47.1670018864 -7.37E-05
    36 Broy./Diag. 0.10E+00    2.1     0.00000865       -47.1670355824 -3.37E-05
    37 Broy./Diag. 0.10E+00    2.1     0.00000674       -47.1669957326  3.98E-05
    38 Broy./Diag. 0.10E+00    2.1     0.00001268       -47.1669763512  1.94E-05
    39 Broy./Diag. 0.10E+00    2.1     0.00000947       -47.1668896780  8.67E-05
    40 Broy./Diag. 0.10E+00    2.1     0.00000324       -47.1668871128  2.57E-06
    41 Broy./Diag. 0.10E+00    2.1     0.00002750       -47.1669302656 -4.32E-05
    42 Broy./Diag. 0.10E+00    2.1     0.00000057       -47.1670213646 -9.11E-05
    43 Broy./Diag. 0.10E+00    2.1     0.00001899       -47.1669848699  3.65E-05
    44 Broy./Diag. 0.10E+00    2.1     0.00006500       -47.1670084676 -2.36E-05
    45 Broy./Diag. 0.10E+00    2.1     0.00011568       -47.1671575308 -1.49E-04
    46 Broy./Diag. 0.10E+00    2.1     0.00000575       -47.1674670334 -3.10E-04
    47 Broy./Diag. 0.10E+00    2.1     0.00003482       -47.1673121849  1.55E-04
    48 Broy./Diag. 0.10E+00    2.1     0.00000583       -47.1674318145 -1.20E-04
    49 Broy./Diag. 0.10E+00    2.1     0.00001872       -47.1674940480 -6.22E-05
    50 Broy./Diag. 0.10E+00    2.1     0.00001767       -47.1676077766 -1.14E-04
    51 Broy./Diag. 0.10E+00    2.1     0.00001428       -47.1677337538 -1.26E-04
    52 Broy./Diag. 0.10E+00    2.1     0.00000302       -47.1675864858  1.47E-04
    53 Broy./Diag. 0.10E+00    2.1     0.00000413       -47.1674740535  1.12E-04
    54 Broy./Diag. 0.10E+00    2.1     0.00001253       -47.1673371458  1.37E-04
    55 Broy./Diag. 0.10E+00    2.1     0.00000379       -47.1672291814  1.08E-04
    56 Broy./Diag. 0.10E+00    2.1     0.00000346       -47.1671466301  8.26E-05
    57 Broy./Diag. 0.10E+00    2.1     0.00001087       -47.1670266266  1.20E-04
    58 Broy./Diag. 0.10E+00    2.1     0.00003141       -47.1669891021  3.75E-05
    59 Broy./Diag. 0.10E+00    2.1     0.00000498       -47.1670518137 -6.27E-05
    60 Broy./Diag. 0.10E+00    2.1     0.00003910       -47.1670202813  3.15E-05
    61 Broy./Diag. 0.10E+00    2.1     0.00007770       -47.1668996922  1.21E-04
    62 Broy./Diag. 0.10E+00    2.1     0.00009616       -47.1671312490 -2.32E-04
    63 Broy./Diag. 0.10E+00    2.1     0.00004772       -47.1674160348 -2.85E-04
    64 Broy./Diag. 0.10E+00    2.1     0.00002148       -47.1676773194 -2.61E-04
    65 Broy./Diag. 0.10E+00    2.1     0.00004107       -47.1677225759 -4.53E-05
    66 Broy./Diag. 0.10E+00    2.1     0.00003804       -47.1680789879 -3.56E-04
    67 Broy./Diag. 0.10E+00    2.1     0.00002768       -47.1682563418 -1.77E-04
    68 Broy./Diag. 0.10E+00    2.1     0.00001368       -47.1685403799 -2.84E-04
    69 Broy./Diag. 0.10E+00    2.1     0.00002283       -47.1687107696 -1.70E-04
    70 Broy./Diag. 0.10E+00    2.1     0.00004014       -47.1688684176 -1.58E-04
    71 Broy./Diag. 0.10E+00    2.1     0.00000177       -47.1686700952  1.98E-04
    72 Broy./Diag. 0.10E+00    2.1     0.00002888       -47.1682263401  4.44E-04
    73 Broy./Diag. 0.10E+00    2.1     0.00000741       -47.1677214741  5.05E-04
    74 Broy./Diag. 0.10E+00    2.1     0.00000890       -47.1674460212  2.75E-04
    75 Broy./Diag. 0.10E+00    2.1     0.00000228       -47.1672739970  1.72E-04
    76 Broy./Diag. 0.10E+00    2.1     0.00000209       -47.1671526517  1.21E-04
    77 Broy./Diag. 0.10E+00    2.1     0.00000163       -47.1671005900  5.21E-05
    78 Broy./Diag. 0.10E+00    2.1     0.00000538       -47.1670613588  3.92E-05
    79 Broy./Diag. 0.10E+00    2.1     0.00001026       -47.1668408600  2.20E-04
    80 Broy./Diag. 0.10E+00    2.1     0.00000334       -47.1669301503 -8.93E-05
    81 Broy./Diag. 0.10E+00    2.1     0.00001508       -47.1669425351 -1.24E-05
    82 Broy./Diag. 0.10E+00    2.1     0.00002592       -47.1669710853 -2.86E-05
    83 Broy./Diag. 0.10E+00    2.1     0.00000186       -47.1670371258 -6.60E-05
    84 Broy./Diag. 0.10E+00    2.1     0.00000135       -47.1670118802  2.52E-05
    85 Broy./Diag. 0.10E+00    2.1     0.00000838       -47.1669887781  2.31E-05
    86 Broy./Diag. 0.10E+00    2.1     0.00001455       -47.1670055580 -1.68E-05
    87 Broy./Diag. 0.10E+00    2.1     0.00000158       -47.1670462757 -4.07E-05
    88 Broy./Diag. 0.10E+00    2.1     0.00000718       -47.1670278005  1.85E-05
    89 Broy./Diag. 0.10E+00    2.1     0.00000316       -47.1670555691 -2.78E-05
    90 Broy./Diag. 0.10E+00    2.1     0.00006833       -47.1670617230 -6.15E-06
    91 Broy./Diag. 0.10E+00    2.1     0.00001012       -47.1668332648  2.28E-04
    92 Broy./Diag. 0.10E+00    2.1     0.00002267       -47.1669136259 -8.04E-05
    93 Broy./Diag. 0.10E+00    2.1     0.00000506       -47.1670164465 -1.03E-04
    94 Broy./Diag. 0.10E+00    2.1     0.00000624       -47.1669932799  2.32E-05
    95 Broy./Diag. 0.10E+00    2.1     0.00001065       -47.1670038622 -1.06E-05
    96 Broy./Diag. 0.10E+00    2.1     0.00000887       -47.1670421315 -3.83E-05
    97 Broy./Diag. 0.10E+00    2.1     0.00001891       -47.1669972276  4.49E-05
    98 Broy./Diag. 0.10E+00    2.1     0.00000248       -47.1670704489 -7.32E-05
    99 Broy./Diag. 0.10E+00    2.1     0.00000391       -47.1670972328 -2.68E-05
   100 Broy./Diag. 0.10E+00    2.1     0.00000033       -47.1671290844 -3.19E-05

  Leaving inner SCF loop after reaching   100 steps.


  Electronic density on regular grids:         -9.0001206781       -0.0001206781
  Core density on regular grids:                9.0000000000       -0.0000000000
  Total charge density on r-space grids:       -0.0001206781
  Total charge density g-space grids:          -0.0001206781

  Overlap energy of the core charge distribution:               0.00000000000000
  Self energy of the core charge distribution:                -96.60649019442629
  Core Hamiltonian energy:                                     29.76227108976198
  Hartree energy:                                              26.73051975986850
  Exchange-correlation energy:                                 -7.05342627602414
  Dispersion energy:                                           -0.00000346358047
  Electronic entropic energy:                                  -0.00000000000000
  Fermi energy:                                                -0.06934385686720

  Total energy:                                               -47.16712908440041

  outer SCF iter =    2 RMS gradient =   0.33E-06 energy =        -47.1671290844
  outer SCF loop converged in   2 iterations or  200 steps


 *** WARNING in qs_scf.F:601 :: SCF run NOT converged ***


  Integrated absolute spin density  :                               1.0000401130
  WARNING: S**2 computation does not yet treat fractional occupied orbitals

 *** WARNING in qs_loc_utils.F:1500 :: User requested the calculation of ***
 *** the localized wavefunction but the section LOCALIZE was not         ***
 *** specified. Localization will not be performed!                      ***


 -------------------------------------------------------------------------------
 -                                                                             -
 -  BSSE CALCULATION         FRAGMENT CONF: 11        FRAGMENT SUBCONF: 10     -
 -                           CHARGE =     0           MULTIPLICITY =     0     -
 -                                                                             -
 -                 ATOM INDEX                              ATOM NAME           -
 -                 ----------                              ---------           -
 -                      1                                   C                  -
 -                      2                                   C                  -
 -                      3                                   C                  -
 -                      4                                   C                  -
 -                      5                                   C                  -
 -                      6                                   C                  -
 -                      7                                   C                  -
 -                      8                                   C                  -
 -                      9                                   C                  -
 -                     10                                   C                  -
 -                     11                                   C                  -
 -                     12                                   C                  -
 -                     13                                   C                  -
 -                     14                                   C                  -
 -                     15                                   C                  -
 -                     16                                   C                  -
 -                     17                                   C                  -
 -                     18                                   C                  -
 -                     19                                   C                  -
 -                     20                                   C                  -
 -                     21                                   C                  -
 -                     22                                   C                  -
 -                     23                                   C                  -
 -                     24                                   C                  -
 -                     25                                   C                  -
 -                     26                                   C                  -
 -                     27                                   C                  -
 -                     28                                   C                  -
 -                     29                                   C                  -
 -                     30                                   C                  -
 -                     31                                   C                  -
 -                     32                                   C                  -
 -                     33                                   C                  -
 -                     34                                   C                  -
 -                     35                                   C                  -
 -                     36                                   C                  -
 -                     37                                   C                  -
 -                     38                                   C                  -
 -                     39                                   C                  -
 -                     40                                   C                  -
 -                     41                                   C                  -
 -                     42                                   C                  -
 -                     43                                   C                  -
 -                     44                                   C                  -
 -                     45                                   C                  -
 -                     46                                   C                  -
 -                     47                                   C                  -
 -                     48                                   C                  -
 -                     49                                   C                  -
 -                     50                                   C                  -
 -                     51                                   C                  -
 -                     52                                   C                  -
 -                     53                                   C                  -
 -                     54                                   C                  -
 -                     55                                   C                  -
 -                     56                                   C                  -
 -                     57                                   C                  -
 -                     58                                   C                  -
 -                     59                                   C                  -
 -                     60                                   C                  -
 -                     61                                   C                  -
 -                     62                                   C                  -
 -                     63                                   C                  -
 -                     64                                   C                  -
 -                     65                                   C                  -
 -                     66                                   C                  -
 -                     67                                   C                  -
 -                     68                                   C                  -
 -                     69                                   C                  -
 -                     70                                   C                  -
 -                     71                                   C                  -
 -                     72                                   C                  -
 -                     73                                   C                  -
 -                     74                                   C                  -
 -                     75                                   C                  -
 -                     76                                   C                  -
 -                     77                                   C                  -
 -                     78                                   C                  -
 -                     79                                   C                  -
 -                     80                                   C                  -
 -                     81                                   C                  -
 -                     82                                   C                  -
 -                     83                                   C                  -
 -                     84                                   C                  -
 -                     85                                   C                  -
 -                     86                                   C                  -
 -                     87                                   C                  -
 -                     88                                   C                  -
 -                     89                                   C                  -
 -                     90                                   C                  -
 -                     91                                   C                  -
 -                     92                                   C                  -
 -                     93                                   C                  -
 -                     94                                   C                  -
 -                     95                                   C                  -
 -                     96                                   C                  -
 -                     97                                   C                  -
 -                     98                                   C                  -
 -                     99                                   C                  -
 -                    100                                   C                  -
 -                    101                                   C                  -
 -                    102                                   C                  -
 -                    103                                   C                  -
 -                    104                                   C                  -
 -                    105                                   C                  -
 -                    106                                   C                  -
 -                    107                                   C                  -
 -                    108                                   C                  -
 -                    109                                   C                  -
 -                    110                                   C                  -
 -                    111                                   C                  -
 -                    112                                   C                  -
 -                    113                                   O                  -
 -                    114                                   Na_ghost           -
 -------------------------------------------------------------------------------

 *******************************************************************************
 *******************************************************************************
 **                                                                           **
 **     #####                         ##              ##                      **
 **    ##   ##            ##          ##              ##                      **
 **   ##     ##                       ##            ######                    **
 **   ##     ##  ##   ##  ##   #####  ##  ##   ####   ##    #####    #####    **
 **   ##     ##  ##   ##  ##  ##      ## ##   ##      ##   ##   ##  ##   ##   **
 **   ##  ## ##  ##   ##  ##  ##      ####     ###    ##   ######   ######    **
 **    ##  ###   ##   ##  ##  ##      ## ##      ##   ##   ##       ##        **
 **     #######   #####   ##   #####  ##  ##  ####    ##    #####   ##        **
 **           ##                                                    ##        **
 **                                                                           **
 **                                                ... make the atoms dance   **
 **                                                                           **
 **            Copyright (C) by CP2K developers group (2000-2022)             **
 **                      J. Chem. Phys. 152, 194103 (2020)                    **
 **                                                                           **
 *******************************************************************************


 TOTAL NUMBERS AND MAXIMUM NUMBERS

  Total number of            - Atomic kinds:                                   3
                             - Atoms:                                        114
                             - Shell sets:                                   114
                             - Shells:                                       570
                             - Primitive Cartesian functions:                572
                             - Cartesian basis functions:                   1591
                             - Spherical basis functions:                   1478

  Maximum angular momentum of- Orbital basis functions:                        2
                             - Local part of the GTH pseudopotential:          2
                             - Non-local part of the GTH pseudopotential:      0


 SCF PARAMETERS         Density guess:                                    ATOMIC
                        --------------------------------------------------------
                        max_scf:                                             100
                        max_scf_history:                                       0
                        max_diis:                                              4
                        --------------------------------------------------------
                        eps_scf:                                        3.00E-07
                        eps_scf_history:                                0.00E+00
                        eps_diis:                                       1.00E-01
                        eps_eigval:                                     1.00E-05
                        --------------------------------------------------------
                        level_shift [a.u.]:                             0.000000
                        added MOs                                       100  100
                        --------------------------------------------------------
                        Mixing method:                            BROYDEN_MIXING
                                                charge density mixing in g-space
                        --------------------------------------------------------
                        Smear method:                                FERMI_DIRAC
                        Electronic temperature [K]:                        300.0
                        Electronic temperature [a.u.]:                  9.50E-04
                        Accuracy threshold:                             1.00E-10
                        --------------------------------------------------------
                        Outer loop SCF in use 
                        No variables optimised in outer loop
                        eps_scf                                         1.00E-06
                        max_scf                                               30
                        DIIS optimization
                        DIIS buffer length                                     3
                        step_size                                       5.00E-01

 Spin 1

 Number of electrons:                                                        227
 Number of occupied orbitals:                                                227
 Number of molecular orbitals:                                               327

 Spin 2

 Number of electrons:                                                        227
 Number of occupied orbitals:                                                227
 Number of molecular orbitals:                                               327

 Number of orbital functions:                                               1478
 Number of independent orbital functions:                                   1478

 Extrapolation method: initial_guess


 SCF WAVEFUNCTION OPTIMIZATION

  Step     Update method      Time    Convergence         Total energy    Change
  ------------------------------------------------------------------------------
     1 NoMix/Diag. 0.10E+00    2.5     0.47297721      -649.7421885888 -6.50E+02
     2 Broy./Diag. 0.10E+00    4.0     0.02292358      -623.6332755016  2.61E+01
     3 Broy./Diag. 0.10E+00    4.0     0.20305564      -641.3932891526 -1.78E+01
     4 Broy./Diag. 0.10E+00    4.1     0.02680944      -650.1722242884 -8.78E+00
     5 Broy./Diag. 0.10E+00    4.1     0.07259480      -652.0530170303 -1.88E+00
     6 Broy./Diag. 0.10E+00    4.2     0.00199849      -652.6633257217 -6.10E-01
     7 Broy./Diag. 0.10E+00    4.2     0.00834840      -652.8456793527 -1.82E-01
     8 Broy./Diag. 0.10E+00    4.3     0.00057993      -653.3061325109 -4.60E-01
     9 Broy./Diag. 0.10E+00    4.3     0.00303933      -653.5257068334 -2.20E-01
    10 Broy./Diag. 0.10E+00    4.4     0.00023271      -653.7037012678 -1.78E-01
    11 Broy./Diag. 0.10E+00    4.4     0.00136865      -653.7605375960 -5.68E-02
    12 Broy./Diag. 0.10E+00    4.4     0.00014968      -653.8535955231 -9.31E-02
    13 Broy./Diag. 0.10E+00    4.4     0.00062341      -653.8305378575  2.31E-02
    14 Broy./Diag. 0.10E+00    4.4     0.00008066      -653.8496743982 -1.91E-02
    15 Broy./Diag. 0.10E+00    4.4     0.00035705      -653.8294401170  2.02E-02
    16 Broy./Diag. 0.10E+00    4.5     0.00021714      -653.8480184459 -1.86E-02
    17 Broy./Diag. 0.10E+00    4.5     0.00016267      -653.8658993663 -1.79E-02
    18 Broy./Diag. 0.10E+00    4.4     0.00016567      -653.8752241833 -9.32E-03
    19 Broy./Diag. 0.10E+00    4.4     0.00027519      -653.8877481990 -1.25E-02
    20 Broy./Diag. 0.10E+00    4.4     0.00003631      -653.8937349177 -5.99E-03
    21 Broy./Diag. 0.10E+00    4.4     0.00014562      -653.8946606093 -9.26E-04
    22 Broy./Diag. 0.10E+00    4.5     0.00002096      -653.8942654051  3.95E-04
    23 Broy./Diag. 0.10E+00    4.4     0.00004229      -653.8919912927  2.27E-03
    24 Broy./Diag. 0.10E+00    4.4     0.00003096      -653.8916760478  3.15E-04
    25 Broy./Diag. 0.10E+00    4.4     0.00002956      -653.8919660551 -2.90E-04
    26 Broy./Diag. 0.10E+00    4.4     0.00000868      -653.8910561631  9.10E-04
    27 Broy./Diag. 0.10E+00    4.4     0.00002080      -653.8905004286  5.56E-04
    28 Broy./Diag. 0.10E+00    4.4     0.00001367      -653.8921904170 -1.69E-03
    29 Broy./Diag. 0.10E+00    4.4     0.00002047      -653.8940207986 -1.83E-03
    30 Broy./Diag. 0.10E+00    4.4     0.00001232      -653.8949205754 -9.00E-04
    31 Broy./Diag. 0.10E+00    4.4     0.00000773      -653.8955069295 -5.86E-04
    32 Broy./Diag. 0.10E+00    4.4     0.00000730      -653.8959347804 -4.28E-04
    33 Broy./Diag. 0.10E+00    4.4     0.00000539      -653.8961284401 -1.94E-04
    34 Broy./Diag. 0.10E+00    4.4     0.00000369      -653.8960115097  1.17E-04
    35 Broy./Diag. 0.10E+00    4.4     0.00000356      -653.8958292006  1.82E-04
    36 Broy./Diag. 0.10E+00    4.4     0.00000226      -653.8958571402 -2.79E-05
    37 Broy./Diag. 0.10E+00    4.4     0.00000230      -653.8958902822 -3.31E-05
    38 Broy./Diag. 0.10E+00    4.4     0.00000096      -653.8957930529  9.72E-05
    39 Broy./Diag. 0.10E+00    4.4     0.00000116      -653.8957041826  8.89E-05
    40 Broy./Diag. 0.10E+00    4.4     0.00000090      -653.8957386083 -3.44E-05
    41 Broy./Diag. 0.10E+00    4.4     0.00000144      -653.8957865509 -4.79E-05
    42 Broy./Diag. 0.10E+00    4.4     0.00000147      -653.8958073683 -2.08E-05
    43 Broy./Diag. 0.10E+00    4.4     0.00000064      -653.8958439698 -3.66E-05
    44 Broy./Diag. 0.10E+00    4.4     0.00000050      -653.8958681390 -2.42E-05
    45 Broy./Diag. 0.10E+00    4.4     0.00000120      -653.8959003931 -3.23E-05
    46 Broy./Diag. 0.10E+00    4.5     0.00000059      -653.8959042055 -3.81E-06
    47 Broy./Diag. 0.10E+00    4.4     0.00000107      -653.8958874417  1.68E-05
    48 Broy./Diag. 0.10E+00    4.5     0.00000029      -653.8959029777 -1.55E-05

  *** SCF run converged in    48 steps ***


  Electronic density on regular grids:       -453.9999999724        0.0000000276
  Core density on regular grids:              453.9999999996       -0.0000000004
  Total charge density on r-space grids:        0.0000000272
  Total charge density g-space grids:           0.0000000272

  Overlap energy of the core charge distribution:               0.00001884602466
  Self energy of the core charge distribution:              -1535.04709487670243
  Core Hamiltonian energy:                                    479.87224314935179
  Hartree energy:                                             600.68903157815282
  Exchange-correlation energy:                               -199.26655051633116
  Dispersion energy:                                           -0.14355115775816
  Electronic entropic energy:                                  -0.00000000039036
  Fermi energy:                                                -0.10695604079554

  Total energy:                                              -653.89590297765290

  outer SCF iter =    1 RMS gradient =   0.29E-06 energy =       -653.8959029777
  outer SCF loop converged in   1 iterations or   48 steps


  Integrated absolute spin density  :                               0.0000000024
  WARNING: S**2 computation does not yet treat fractional occupied orbitals

 *** WARNING in qs_loc_utils.F:1500 :: User requested the calculation of ***
 *** the localized wavefunction but the section LOCALIZE was not         ***
 *** specified. Localization will not be performed!                      ***


 -------------------------------------------------------------------------------
 -                                                                             -
 -  BSSE CALCULATION         FRAGMENT CONF: 11        FRAGMENT SUBCONF: 01     -
 -                           CHARGE =     0           MULTIPLICITY =     0     -
 -                                                                             -
 -                 ATOM INDEX                              ATOM NAME           -
 -                 ----------                              ---------           -
 -                      1                                   C_ghost            -
 -                      2                                   C_ghost            -
 -                      3                                   C_ghost            -
 -                      4                                   C_ghost            -
 -                      5                                   C_ghost            -
 -                      6                                   C_ghost            -
 -                      7                                   C_ghost            -
 -                      8                                   C_ghost            -
 -                      9                                   C_ghost            -
 -                     10                                   C_ghost            -
 -                     11                                   C_ghost            -
 -                     12                                   C_ghost            -
 -                     13                                   C_ghost            -
 -                     14                                   C_ghost            -
 -                     15                                   C_ghost            -
 -                     16                                   C_ghost            -
 -                     17                                   C_ghost            -
 -                     18                                   C_ghost            -
 -                     19                                   C_ghost            -
 -                     20                                   C_ghost            -
 -                     21                                   C_ghost            -
 -                     22                                   C_ghost            -
 -                     23                                   C_ghost            -
[...]
  Exchange-correlation energy:                               -206.55255229284478
  Dispersion energy:                                           -0.14792169480392
  Electronic entropic energy:                                  -0.00065703178977
  Fermi energy:                                                -0.07552600110503

  Total energy:                                              -701.11434619908528

  outer SCF iter =    4 RMS gradient =   0.23E-06 energy =       -701.1143461991
  outer SCF loop converged in   4 iterations or  330 steps


  Integrated absolute spin density  :                               0.9692486326
  WARNING: S**2 computation does not yet treat fractional occupied orbitals

 *** WARNING in qs_loc_utils.F:1500 :: User requested the calculation of ***
 *** the localized wavefunction but the section LOCALIZE was not         ***
 *** specified. Localization will not be performed!                      ***


 -------------------------------------------------------------------------------
 -                                                                             -
 -                                 BSSE RESULTS                                -
 -                                                                             -
 -                 CP-corrected Total energy:     -701.113073                  -
 -                                                                             -
 -                       1-body contribution:     -653.894880                  -
 -                       1-body contribution:      -47.167129                  -
 -                                                                             -
 -                       2-body contribution:       -0.051063                  -
 -                 BSSE-free interaction energy:       -0.051063               -
 -------------------------------------------------------------------------------

 -------------------------------------------------------------------------------
 -                                                                             -
 -                                DBCSR STATISTICS                             -
 -                                                                             -
 -------------------------------------------------------------------------------
 COUNTER                                    TOTAL       BLAS       SMM       ACC
 flops     9 x     9 x     8               168480     100.0%      0.0%      0.0%
 flops     9 x     9 x     9               772740     100.0%      0.0%      0.0%
 flops     9 x     9 x    71              1104192     100.0%      0.0%      0.0%
 flops     9 x     9 x    75              4009500     100.0%      0.0%      0.0%
 flops     9 x     9 x    32              4043520     100.0%      0.0%      0.0%
 flops     9 x     9 x    76              4062960     100.0%      0.0%      0.0%
 flops     9 x     9 x    64              7838208     100.0%      0.0%      0.0%
 flops    13 x     9 x     8             13628160     100.0%      0.0%      0.0%
 flops     9 x    13 x     8             13871520     100.0%      0.0%      0.0%
 flops    13 x     9 x     9             15331680     100.0%      0.0%      0.0%
 flops     9 x    13 x     9             15605460     100.0%      0.0%      0.0%
 flops     9 x     9 x    96             23514624     100.0%      0.0%      0.0%
 flops    13 x     9 x    71             89316864     100.0%      0.0%      0.0%
 flops     9 x    13 x    71             90911808     100.0%      0.0%      0.0%
 flops    13 x     9 x    75            324324000     100.0%      0.0%      0.0%
 flops    13 x     9 x    32            327075840     100.0%      0.0%      0.0%
 flops    13 x     9 x    76            328648320     100.0%      0.0%      0.0%
 flops     9 x    13 x    75            330115500     100.0%      0.0%      0.0%
 flops     9 x    13 x    32            332916480     100.0%      0.0%      0.0%
 flops     9 x    13 x    76            334517040     100.0%      0.0%      0.0%
 flops    13 x     9 x    64            634023936     100.0%      0.0%      0.0%
 flops     9 x    13 x    64            645345792     100.0%      0.0%      0.0%
 flops    13 x     9 x    96           1902071808     100.0%      0.0%      0.0%
 flops     9 x    13 x    96           1936037376     100.0%      0.0%      0.0%
 flops    13 x    13 x     8           2264140320     100.0%      0.0%      0.0%
 flops    13 x    13 x     9           2547157860     100.0%      0.0%      0.0%
 flops    13 x    13 x    71          29059370184     100.0%      0.0%      0.0%
 flops    13 x    13 x    75          53882185500     100.0%      0.0%      0.0%
 flops    13 x    13 x    32          54339367680     100.0%      0.0%      0.0%
 flops    13 x    13 x    76          54600614640     100.0%      0.0%      0.0%
 flops    13 x    13 x    64         118153291776     100.0%      0.0%      0.0%
 flops    13 x    13 x    96         354459875328     100.0%      0.0%      0.0%
 flops inhomo. stacks                           0       0.0%      0.0%      0.0%
 flops total                       676.685259E+09     100.0%      0.0%      0.0%
 flops max/rank                     45.202315E+09     100.0%      0.0%      0.0%
 matmuls inhomo. stacks                         0       0.0%      0.0%      0.0%
 matmuls total                           29010208     100.0%      0.0%      0.0%
 number of processed stacks                103824     100.0%      0.0%      0.0%
 average stack size                                   279.4       0.0       0.0
 marketing flops                   866.036744E+09
 -------------------------------------------------------------------------------
 # multiplications                           1508
 max memory usage/rank             919.228416E+06
 # max total images/rank                        1
 # max 3D layers                                1
 # MPI messages exchanged                  144768
 MPI messages size (bytes):
  total size                        21.799264E+09
  min size                           0.000000E+00
  max size                         289.536000E+03
  average size                     150.580688E+03
 MPI breakdown and total messages size (bytes):
             size <=      128               36000                        0
       128 < size <=     8192                2400                  1555200
      8192 < size <=    32768                6240                156786240
     32768 < size <=   131072               18720               1770762240
    131072 < size <=  4194304               81408              19870194816
   4194304 < size <= 16777216                   0                        0
  16777216 < size                               0                        0
 -------------------------------------------------------------------------------
 -                                                                             -
 -                      DBCSR MESSAGE PASSING PERFORMANCE                      -
 -                                                                             -
 -------------------------------------------------------------------------------
 ROUTINE             CALLS      AVE VOLUME [Bytes]
 MP_Bcast               33                     12.
 MP_Allreduce        10649                      8.
 MP_Alltoall         42284                 208678.
 MP_ISend            24128                  60998.
 MP_IRecv            24128                  52951.
 -------------------------------------------------------------------------------

 -------------------------------------------------------------------------------
 -                                                                             -
 -                                DBM STATISTICS                               -
 -                                                                             -
 -------------------------------------------------------------------------------
    M  x    N  x    K                                          COUNT     PERCENT
 -------------------------------------------------------------------------------

 -------------------------------------------------------------------------------
 -                                                                             -
 -                                GRID STATISTICS                              -
 -                                                                             -
 -------------------------------------------------------------------------------
 LP    KERNEL             BACKEND                              COUNT     PERCENT
 4     collocate general  REF                               74145924      49.29%
 4     integrate general  REF                               73614412      48.94%
 3     collocate general  REF                                1263192       0.84%
 3     integrate general  REF                                1255776       0.83%
 2     collocate general  REF                                  69776       0.05%
 2     integrate general  REF                                  69384       0.05%
 0     collocate general  REF                                   5472       0.00%
 -------------------------------------------------------------------------------

 MEMORY| Estimated peak process memory [MiB]                                 877

 -------------------------------------------------------------------------------
 -                                                                             -
 -                         MESSAGE PASSING PERFORMANCE                         -
 -                                                                             -
 -------------------------------------------------------------------------------

 ROUTINE             CALLS      AVE VOLUME [Bytes]
 MP_Group               24
 MP_Bcast             2466                 581522.
 MP_Allreduce        16028                    335.
 MP_Sync              1932
 MP_Alltoall         18955               14613685.
 MP_SendRecv         86406                 355986.
 MP_ISendRecv        67860                 362400.
 MP_Wait            101201
 MP_comm_split         400
 MP_ISend            24248                3008049.
 MP_IRecv            24248                3008152.
 MP_Recv               542                 345166.
 -------------------------------------------------------------------------------


 -------------------------------------------------------------------------------
 -                                                                             -
 -                           R E F E R E N C E S                               -
 -                                                                             -
 -------------------------------------------------------------------------------
 
 CP2K version 2023.1, the CP2K developers group (2023).
 CP2K is freely available from https://www.cp2k.org/ .

 Kuehne,Thomas D.; Iannuzzi,Marcella; Del Ben,Mauro;
 Rybkin,Vladimir V.; Seewald,Patrick; Stein,Frederick; Laino,Teodoro;
 Khaliullin,Rustam Z.; Schuett,Ole; Schiffmann,Florian; Golze,Dorothea;
 Wilhelm,Jan; Chulkov,Sergey; Bani-Hashemian,Mohammad Hossein;
 Weber,Valery; Borstnik,Urban; Taillefumier,Mathieu;
 Jakobovits,Alice Shoshana; Lazzaro,Alfio; Pabst,Hans; Mueller,Tiziano;
 Schade,Robert; Guidon,Manuel; Andermatt,Samuel; Holmberg,Nico;
 Schenter,Gregory K.; Hehn,Anna; Bussy,Augustin; Belleflamme,Fabian;
 Tabacchi,Gloria; Gloess,Andreas; Lass,Michael; Bethune,Iain;
 Mundy,Christopher J.; Plessl,Christian; Watkins,Matt;
 VandeVondele,Joost; Krack,Matthias; Hutter,Juerg. 
 The Journal of Chemical Physics, 152 (19), (2020). 
 CP2K: An electronic structure and molecular dynamics software package -
 Quickstep: Efficient and accurate electronic structure calculations.
 https://doi.org/10.1063/5.0007045

 Goerigk, Lars; Hansen, Andreas; Bauer, Christoph; Ehrlich, Stephan;
 Najibi, Asim; Grimme, Stefan. , 19 (48), (2017). 
 A look at the density functional theory zoo with the advanced GMTKN55 database
 for general main group thermochemistry, kinetics and noncovalent interactions.
 https://doi.org/10.1039/C7CP04913G

 Schuett, Ole; Messmer, Peter; Hutter, Juerg; VandeVondele, Joost. 
 Electronic Structure Calculations on Graphics Processing Units, John
 Wiley & Sons, Ltd, 173-190 (2016). 
 GPU-Accelerated Sparse Matrix-Matrix Multiplication for
 Linear Scaling Density Functional Theory.
 https://doi.org/10.1002/9781118670712.ch8

 Borstnik, U; VandeVondele, J; Weber, V; Hutter, J. 
 PARALLEL COMPUTING, 40 (5-6), 47-58 (2014). 
 Sparse matrix multiplication: The distributed block-compressed sparse
 row library.
 https://doi.org/10.1016/j.parco.2014.03.012

 Hutter, J; Iannuzzi, M; Schiffmann, F; VandeVondele, J. 
 WIREs Comput Mol Sci., 4 (1), 15-25 (2014). 
 CP2K: atomistic simulations of condensed matter systems.
 https://doi.org/10.1002/wcms.1159

 Marek, A; Blum, V; Johanni, R; Havu, V; Lang, B; Auckenthaler, T;
 Heinecke, A; Bungartz, H; Lederer, H. 
 Journal of Physics: Condensed Matter, 26 (21), (2014). 
 The ELPA library: scalable parallel eigenvalue solutions for
 electronic structure
 theory and computational science.
 https://doi.org/10.1088/0953-8984/26/21/213201

 Grimme, S; Ehrlich, S; Goerigk, L. 
 JOURNAL OF COMPUTATIONAL CHEMISTRY, 32, 1456 (2011). 
 Effect of the damping function in dispersion corrected density functional theory.
 https://doi.org/10.1002/jcc.21759

 Grimme, S; Antony, J; Ehrlich, S; Krieg, H. 
 JOURNAL OF CHEMICAL PHYSICS, 132 (15), 154104 (2010). 
 A consistent and accurate ab initio parametrization of density
 functional dispersion correction (DFT-D) for the 94 elements H-Pu.
 https://doi.org/10.1063/1.3382344

 VandeVondele, J; Hutter, J. 
 JOURNAL OF CHEMICAL PHYSICS, 127 (11), 114105 (2007). 
 Gaussian basis sets for accurate calculations on molecular systems in
 gas and condensed phases.
 https://doi.org/10.1063/1.2770708

 Krack, M. 
 THEORETICAL CHEMISTRY ACCOUNTS, 114 (1-3), 145-152 (2005). 
 Pseudopotentials for H to Kr optimized for gradient-corrected
 exchange-correlation functionals.
 https://doi.org/10.1007/s00214-005-0655-y

 VandeVondele, J; Krack, M; Mohamed, F; Parrinello, M; Chassaing, T;
 Hutter, J. COMPUTER PHYSICS COMMUNICATIONS, 167 (2), 103-128 (2005). 
 QUICKSTEP: Fast and accurate density functional calculations using a
 mixed Gaussian and plane waves approach.
 https://doi.org/10.1016/j.cpc.2004.12.014

 Frigo, M; Johnson, SG. 
 PROCEEDINGS OF THE IEEE, 93 (2), 216-231 (2005). 
 The design and implementation of FFTW3.
 https://doi.org/10.1109/JPROC.2004.840301

 Hartwigsen, C; Goedecker, S; Hutter, J. 
 PHYSICAL REVIEW B, 58 (7), 3641-3662 (1998). 
 Relativistic separable dual-space Gaussian pseudopotentials from H to Rn.
 https://doi.org/10.1103/PhysRevB.58.3641

 Lippert, G; Hutter, J; Parrinello, M. 
 MOLECULAR PHYSICS, 92 (3), 477-487 (1997). 
 A hybrid Gaussian and plane wave density functional scheme.
 https://doi.org/10.1080/002689797170220

 Perdew, JP; Burke, K; Ernzerhof, M. 
 PHYSICAL REVIEW LETTERS, 77 (18), 3865-3868 (1996). 
 Generalized gradient approximation made simple.
 https://doi.org/10.1103/PhysRevLett.77.3865

 Goedecker, S; Teter, M; Hutter, J. 
 PHYSICAL REVIEW B, 54 (3), 1703-1710 (1996). 
 Separable dual-space Gaussian pseudopotentials.
 https://doi.org/10.1103/PhysRevB.54.1703


 -------------------------------------------------------------------------------
 -                                                                             -
 -                                T I M I N G                                  -
 -                                                                             -
 -------------------------------------------------------------------------------
 SUBROUTINE                       CALLS  ASD         SELF TIME        TOTAL TIME
                                MAXIMUM       AVERAGE  MAXIMUM  AVERAGE  MAXIMUM
 CP2K                                 1  1.0    0.173    0.228 2873.767 2873.768
 qs_energies                          5  2.0    0.003    0.003 2872.102 2872.103
 scf_env_do_scf                       5  3.0    0.014    0.016 2864.294 2864.528
 scf_env_do_scf_inner_loop          754  4.0    0.023    0.058 2864.277 2864.510
 qs_ks_update_qs_env                754  5.0    0.005    0.005 1019.417 1019.469
 rebuild_ks_matrix                  754  6.0    0.002    0.003 1018.628 1018.659
 qs_ks_build_kohn_sham_matrix       754  7.0    0.110    0.116 1018.626 1018.656
 qs_rho_update_rho_low              759  5.0    0.004    0.005  757.046  757.169
 calculate_rho_elec                1518  6.0    2.997    3.106  757.042  757.164
 sum_up_and_integrate               754  8.0   10.511   11.529  658.676  658.716
 integrate_v_rspace                1508  9.0    0.062    0.086  648.159  648.842
 gspace_mixing                      744  5.0    2.979    3.087  548.053  548.053
 pw_transfer                      17377  9.0    1.535    1.733  535.946  546.604
 qs_scf_new_mos                     754  5.0    0.014    0.016  543.454  543.801
 fft_wrap_pw1pw2                  15869 10.0    0.172    0.184  525.558  536.563
 eigensolver                       1508  6.0    0.110    0.158  524.383  524.459
 fft_wrap_pw1pw2_150               6791 10.2   44.260   45.699  488.147  504.589
 grid_collocate_task_list          1518  7.0  407.195  414.869  407.195  414.869
 broyden_mixing                     744  6.0  395.059  407.475  406.019  408.451
 grid_integrate_task_list          1508 10.0  391.449  397.195  391.449  397.195
 fft3d_ps                         15869 12.0  220.607  237.122  371.190  384.790
 density_rs2pw                     1518  7.0    0.103    0.117  339.170  351.353
 cp_fm_diag_elpa                   1108  7.0    0.007    0.007  349.770  349.877
 cp_fm_diag_elpa_base              1108  8.0  347.346  348.038  349.510  349.512
 qs_vxc_create                      754  8.0    0.017    0.020  270.521  273.631
 xc_vxc_pw_create                   754  9.0   24.901   26.616  270.504  273.611
 potential_pw2rs                   1508 10.0    0.258    0.277  250.311  251.077
 rs_pw_transfer                   12109  9.5    0.197    0.248  206.301  213.885
 xc_rho_set_and_dset_create         754 10.0   24.458   31.356  185.813  192.671
 cp_fm_triangular_multiply         4524  7.0  172.090  172.938  172.090  172.938
 xc_functional_eval                 754 11.0    0.020    0.023  116.988  122.085
 pbe_lsd_eval                       754 12.0  116.967  122.066  116.967  122.066
 rs_pw_transfer_PW2RS_150          1508 12.0   52.864   54.848   92.542   96.468
 x_to_yz                           8284 13.3   52.838   56.229   84.137   87.922
 rs_pw_transfer_RS2PW_150          1523  9.0   45.796   48.130   71.205   79.031
 xc_pw_derive                      9048 11.0    0.051    0.055   60.164   77.927
 pw_nn_compose_r                   9048 12.0   41.588   42.626   60.113   77.878
 yz_to_x                           7585 12.6   39.126   43.459   65.948   73.150
 mp_alltoall_z22v                 15869 14.0   58.120   71.577   58.120   71.577
 pw_gather_p                       7585 11.6   56.940   66.374   56.940   66.374
 mp_waitany                       24248 11.5   46.762   61.098   46.762   61.098
 -------------------------------------------------------------------------------

 The number of warnings for this run is : 8
 
 -------------------------------------------------------------------------------
  **** **** ******  **  PROGRAM ENDED AT                 2025-08-25 13:43:26.421
 ***** ** ***  *** **   PROGRAM RAN ON                                sebnode129
 **    ****   ******    PROGRAM RAN BY                                    luehrs
 ***** **    ** ** **   PROGRAM PROCESS ID                               2170734
  **** **  *******  **  PROGRAM STOPPED IN /home/luehrs/PhD/Sodium_batteries/Sod
                                           ium-graphene-functional_groups/Epoxid
