     193
 i =       61, E =     -1140.5787064831
  C        18.3942459041        2.1451480977       -1.0951850512
  C         6.3117569665       12.8974080463        3.6443642139
  C         7.5203110409       13.6110548918        3.8780597855
  C         8.7496667878       12.8970359768        3.9398673285
  C         9.9758355859       13.6105748793        3.8247347470
  C        11.1739579114       12.8967932243        3.5381614146
  C        12.3239209639       13.6099459779        3.0965825421
  C        13.4186345075       12.8966952690        2.5310553097
  C        14.4581076295       13.6094031370        1.8700158390
  C        15.4530926692       12.8969272509        1.1436470706
  C        16.4275815482       13.6091736744        0.3901827586
  C        17.3991512094       12.8974579740       -0.3675029281
  C        18.3950952807       13.6091958768       -1.0938997570
  C        19.4203650945       12.8974279068       -1.7772913146
  C        20.4881024100       13.6095413434       -2.3904519745
  C        21.5976840999       12.8967988349       -2.9236322551
  C        22.7499859471       13.6095680903       -3.3571084410
  C        21.5946521237       11.4606589966       -2.9310069817
  C        19.4128773104       11.4616040272       -1.7908871867
  C        17.3910064741       11.4615594505       -0.3782903701
  C        15.4496401918       11.4604261990        1.1398511583
  C        13.4179263500       11.4601365769        2.5305669881
  C        12.3233086250       10.7465720597        3.0965224407
  C        11.1737294576       11.4604930902        3.5383344820
  C         9.9755425034       10.7467665164        3.8250600435
  C         8.7494828142       11.4609818687        3.9398456833
  C         7.5200164751       10.7471817700        3.8780968171
  C         6.3115722865       11.4614280801        3.6444653553
  C         5.1459647349       10.7475414706        3.2509640014
  C        20.4773353043       10.7482163868       -2.4120657256
  C        18.3782582496       10.7515015884       -1.1191998314
  C        16.4163621686       10.7484278428        0.3757008751
  C        14.4547662261       10.7468248187        1.8661120078
  C        20.4713045810        9.3116489540       -2.4285108113
  C        19.3882439445        8.5985609463       -1.8355299745
  C        18.3600247744        9.3139886729       -1.1468153806
  C        17.3579853568        8.5991083693       -0.4200687975
  C        16.4034975984        9.3117993852        0.3630672198
  C        15.4371479348        8.5964746103        1.1254498693
  C        14.4515966406        9.3102412444        1.8632215375
  C        13.4155854850        8.5963899427        2.5287326928
  C        12.3226928604        9.3100682813        3.0966821723
  C        11.1729860984        8.5966944134        3.5384250689
  C         9.9751530435        9.3106581015        3.8251015731
  C         8.7490236233        8.5971107059        3.9397201111
  C         7.5198226368        9.3111624541        3.8780447866
  C         6.3112460956        8.5974527367        3.6448482740
  C         5.1457880727        9.3114284720        3.2511415683
  C         4.0335456920        8.5978779554        2.7245932406
  C         4.0335693374        7.1615828231        2.7245987210
  C         5.1456292785        6.4475779161        3.2514453379
  C         6.3112238822        7.1614835090        3.6448937114
  C         7.5197508464        6.4471911108        3.8778983210
  C         8.7489952798        7.1611138160        3.9397379884
  C         9.9749194775        6.4468410266        3.8244048169
  C        11.1729090403        7.1605678045        3.5381087347
  C        12.3224068369        6.4464367317        3.0962919076
  C        13.4154715321        7.1600528168        2.5284958242
  C        14.4510511032        6.4453245353        1.8627215130
  C        15.4361889661        7.1590200479        1.1242392686
  C        16.3998185598        6.4428288212        0.3586826492
  C        17.3533469657        7.1558688854       -0.4258929978
  C        18.3527350204        6.4400992643       -1.1572343713
  C        19.3852018416        7.1561819840       -1.8407062594
  C        18.3724521073        5.0023923946       -1.1273674679
  C        17.3872280806        4.2930408038       -0.3832493764
  C        16.4127585318        5.0061407033        0.3711956079
  C        15.4477427957        4.2947104224        1.1376343170
  C        14.4536222771        5.0087045313        1.8645040189
  C        13.4173516094        4.2961443825        2.5298734338
  C        12.3228803305        5.0099417419        3.0957924856
  C        11.1733868766        4.2967372011        3.5378036352
  C         9.9753211548        5.0107162195        3.8244928956
  C         8.7492869793        4.2971585475        3.9394918212
  C         7.5199021053        5.0111402311        3.8781462935
  C         6.3113754545        4.2973845686        3.6447807036
  C         5.1458910295        5.0114274486        3.2511784132
  C         4.0339106272        4.2978283663        2.7240981099
  C         2.9749387412        5.0114053475        2.0974897056
  C         2.9745760431        6.4478848210        2.0980021394
  C         1.9599793817        4.2979696722        1.4018449613
  C         1.9600465486        2.8614164076        1.4016830614
  C         2.9751257134        2.1478326257        2.0971492912
  C         4.0341872530        2.8615342047        2.7236581023
  C         5.1462593550        2.1475066398        3.2504694925
  C         6.3117397204        2.8613735994        3.6444875563
  C         7.5202560852        2.1471354302        3.8779628251
  C         8.7496148536        2.8610676182        3.9398327020
  C         9.9757250014        2.1468127211        3.8247101303
  C        11.1737405314        2.8604159418        3.5376414194
  C        12.3237679447        2.1464910642        3.0964220597
  C        13.4181056694        2.8595573706        2.5301451334
  C        14.4577051973        2.1458714136        1.8695844110
  C        15.4520985306        2.8582023126        1.1424230499
  C        16.4268924995        2.1453792133        0.3892879774
  C        17.3978426489        2.8571837892       -0.3693077638
  C        20.4876741157        2.1451894056       -2.3913245392
  C        21.5970911231        2.8585412133       -2.9247316831
  C        25.1540128363        2.1464909537       -3.8736616108
  C        26.3831247195        2.8605906879       -3.9386175716
  C        28.8231622316        2.8608638843       -3.6470556284
  C        27.6114802082        2.1467531201       -3.8625660749
  C        33.2563188426        2.8610113796       -1.5707147647
  C        30.0011232696        2.1469397874       -3.2916808139
  C        31.1355662729        2.8608883742       -2.8152432864
  C        32.2200045407        2.1471896588       -2.2340996652
  C        34.2532860815        2.1476060419       -0.8486531412
  C        19.4095840746        4.2930673306       -1.7960582966
  C        22.7498446534        2.1458720872       -3.3575717695
  C        19.4190188622        2.8573269901       -1.7794009423
  C        35.2260564855        2.8613114605       -0.0952291273
  C         0.9754219723        2.1478556105        0.6628558142
  C        23.9386357073        2.8598262280       -3.6771211064
  C        23.9389618369       12.8964531951       -3.6766434543
  C        25.1540682062       13.6099582684       -3.8737130431
  C        26.3832876060       12.8965350637       -3.9382978240
  C        27.6115431311       13.6103869413       -3.8628579646
  C        28.8232298824       12.8968044343       -3.6469681197
  C        30.0012169422       13.6106578952       -3.2919318666
  C        31.1355675777       12.8970983567       -2.8151516737
  C        32.2200665999       13.6108025898       -2.2342601413
  C        33.2562674797       12.8975171319       -1.5706290539
  C        34.2534108439       13.6109901935       -0.8488746005
  C        35.2259174980       12.8978327520       -0.0950494741
  C        36.1955274006       13.6112051728        0.6627223617
  C        37.1800349675       12.8979835402        1.4017205653
  C        38.1951405298       13.6113838645        2.0971632571
  C        39.2542040356       12.8978368502        2.7236319226
  C        40.3663163793       13.6113900296        3.2504808528
  C        39.2539819250       11.4615702717        2.7240253289
  C        37.1799817460       11.4614513263        1.4018186571
  C        35.2261742161       11.4613077573       -0.0953282818
  C        33.2563813798       11.4610147508       -1.5706988698
  C        31.1357175339       11.4608376274       -2.8152623176
  C        30.0012703854       10.7468652942       -3.2917518393
  C        28.8232491755       11.4606217830       -3.6468877455
  C        27.6113562218       10.7464866665       -3.8616319229
  C        26.3830543400       11.4602583872       -3.9383173688
  C        25.1536795072       10.7462476421       -3.8733528340
  C        23.9381520439       11.4599279220       -3.6778958846
  C        22.7468264699       10.7466401827       -3.3644730404
  C        38.1949060007       10.7478830873        2.0975310747
  C        36.1954630654       10.7479040236        0.6629128117
  C        34.2533734850       10.7476313728       -0.8486868463
  C        32.2203209328       10.7472107655       -2.2344075187
  C        38.1945974780        9.3114316074        2.0979206287
  C        37.1797737564        8.5980180659        1.4021116830
  C        36.1955935276        9.3112514953        0.6626917632
  C        35.2261921353        8.5978834423       -0.0953379369
  C        34.2536670833        9.3110170429       -0.8491396153
  C        33.2566029569        8.5975552200       -1.5709989954
  C        32.2203063338        9.3108353320       -2.2344160733
  C        31.1356473979        8.5971375124       -2.8149974017
  C        30.0011198323        9.3106694175       -3.2913308105
  C        28.8229606318        8.5968987569       -3.6459754599
  C        27.6112197459        9.3103559383       -3.8616977334
  C        26.3827103917        8.5966107393       -3.9378364674
  C        25.1531442069        9.3098867630       -3.8748950963
  C        23.9366443658        8.5963331391       -3.6825944520
  C        22.7449139906        9.3098709723       -3.3701748249
  C        21.5867931082        8.5963488572       -2.9504247236
  C        21.5863313782        7.1590283678       -2.9513128438
  C        22.7447552097        6.4456181708       -3.3707257179
  C        23.9364742824        7.1599138895       -3.6830842271
  C        25.1530921401        6.4465631754       -3.8752211420
  C        26.3826791809        7.1605401528       -3.9382049239
  C        27.6111607262        6.4467760797       -3.8615896811
  C        28.8229159538        7.1608352458       -3.6460313007
  C        30.0010001983        6.4469926792       -3.2911104145
  C        31.1355675702        7.1609146169       -2.8149245448
  C        32.2201616586        6.4472100631       -2.2341606878
  C        33.2566378787        7.1610378553       -1.5710807095
  C        34.2535770520        6.4476790061       -0.8489477733
  C        35.2263604753        7.1613431301       -0.0955486580
  C        36.1955775916        6.4479005654        0.6627457132
  C        37.1798847531        7.1614643055        1.4019487325
  C        36.1955908638        5.0112296518        0.6627246691
  C        35.2260507415        4.2978560691       -0.0951726228
  C        34.2534489730        5.0110458797       -0.8488494867
  C        33.2562917907        4.2975273641       -1.5705554118
  C        32.2202154042        5.0108230714       -2.2343433425
  C        31.1355639480        4.2971639736       -2.8150189307
  C        30.0011673845        5.0107876383       -3.2917138925
  C        28.8231001616        4.2970427020       -3.6465708685
  C        27.6112294373        5.0106349472       -3.8619939435
  C        26.3829216344        4.2968642907       -3.9383428629
  C        25.1533688506        5.0102139867       -3.8742372037
  C        23.9378751381        4.2963843970       -3.6785348235
  C        22.7461851004        5.0088962997       -3.3656582534
  C        21.5936685730        4.2947059952       -2.9329820548
  C        20.4749528824        5.0063462751       -2.4163091737
  C        20.4694284864        6.4429591685       -2.4322193615
 Na        19.5826910118        7.7878337792        0.7972297004
