 DBCSR| CPU Multiplication driver                                           BLAS (U)
 DBCSR| Multrec recursion limit                                              512 (U)
 DBCSR| Multiplication stack size                                           1000 (D)
 DBCSR| Maximum elements for images                                    UNLIMITED (U)
 DBCSR| Multiplicative factor virtual images                                   1 (U)
 DBCSR| Use multiplication densification                                       T (D)
 DBCSR| Multiplication size stacks                                             3 (U)
 DBCSR| Use memory pool for CPU allocation                                     F (U)
 DBCSR| Number of 3D layers                                               SINGLE (U)
 DBCSR| Use MPI memory allocation                                              F (U)
 DBCSR| Use RMA algorithm                                                      F (U)
 DBCSR| Use Communication thread                                               T (U)
 DBCSR| Communication thread load                                             87 (D)
 DBCSR| MPI: My process id                                                     0
 DBCSR| MPI: Number of processes                                              16
 DBCSR| OMP: Current number of threads                                         1
 DBCSR| OMP: Max number of threads                                             1
 DBCSR| Split modifier for TAS multiplication algorithm                  1.0E+00 (U)


  **** **** ******  **  PROGRAM STARTED AT               2025-10-01 22:54:07.061
 ***** ** ***  *** **   PROGRAM STARTED ON                            sebnode132
 **    ****   ******    PROGRAM STARTED BY                                luehrs
 ***** **    ** ** **   PROGRAM PROCESS ID                                787672
  **** **  *******  **  PROGRAM STARTED IN /home/luehrs/PhD/Sodium_batteries/Sod
                                           ium-graphene-functional_groups/XPS_Fu
                                           nctional_groups/Alcohol_surface

 CP2K| version string:                                       CP2K version 2023.1
 CP2K| source code revision number:                                  git:b888bd8
 CP2K| cp2kflags: omp libint fftw3 libxc elpa parallel scalapack spglib         
 CP2K| is freely available from                            https://www.cp2k.org/
 CP2K| Program compiled at                          Tue Jan 10 19:52:03 UTC 2023
 CP2K| Program compiled on                                            x86-ubc-01
 CP2K| Program compiled for                                Linux-x86_64-gfortran
 CP2K| Data directory path                                       /usr/share/cp2k
 CP2K| Input file name                                                 input.inp

 GLOBAL| Force Environment number                                              1
 GLOBAL| Basis set file name                                          BASIS_GW2X
 GLOBAL| Potential file name                                           POTENTIAL
 GLOBAL| MM Potential file name                                     MM_POTENTIAL
 GLOBAL| Coordinate file name                                         coords.xyz
 GLOBAL| Method name                                                        CP2K
 GLOBAL| Project name                                                         HC
 GLOBAL| Run type                                                         ENERGY
 GLOBAL| FFT library                                                       FFTW3
 GLOBAL| Diagonalization library                                            ELPA
 GLOBAL| DGEMM library                                                      BLAS
 GLOBAL| Minimum number of eigenvectors for ELPA usage                        16
 GLOBAL| Orthonormality check for eigenvectors                          DISABLED
 GLOBAL| Matrix multiplication library                                 ScaLAPACK
 GLOBAL| All-to-all communication in single precision                          F
 GLOBAL| FFTs using library dependent lengths                                  F
 GLOBAL| Grid backend                                                       AUTO
 GLOBAL| Global print level                                                 HIGH
 GLOBAL| MPI I/O enabled                                                       T
 GLOBAL| Total number of message passing processes                            16
 GLOBAL| Number of threads for this process                                    1
 GLOBAL| This output is from process                                           0
 GLOBAL| Stack size for threads created by OpenMP (OMP_STACKSIZE)        default
 GLOBAL| CPU model name                          AMD EPYC 7513 32-Core Processor

 MEMORY| system memory details [Kb]
 MEMORY|                        rank 0           min           max       average
 MEMORY| MemTotal            131828100     131828100     131828100     131828100
 MEMORY| MemFree              16884964      16884964      16884964      16884964
 MEMORY| Buffers                  6312          6312          6312          6312
 MEMORY| Cached                 156700        156700        157556        156807
 MEMORY| Slab                   816744        816744        816788        816749
 MEMORY| SReclaimable           132864        132864        132864        132864
 MEMORY| MemLikelyFree        17180840      17180840      17181696      17180947


 *** Fundamental physical constants (SI units) ***

 *** Literature: B. J. Mohr and B. N. Taylor,
 ***             CODATA recommended values of the fundamental physical
 ***             constants: 2006, Web Version 5.1
 ***             http://physics.nist.gov/constants

 Speed of light in vacuum [m/s]                             2.99792458000000E+08
 Magnetic constant or permeability of vacuum [N/A**2]       1.25663706143592E-06
 Electric constant or permittivity of vacuum [F/m]          8.85418781762039E-12
 Planck constant (h) [J*s]                                  6.62606896000000E-34
 Planck constant (h-bar) [J*s]                              1.05457162825177E-34
 Elementary charge [C]                                      1.60217648700000E-19
 Electron mass [kg]                                         9.10938215000000E-31
 Electron g factor [ ]                                     -2.00231930436220E+00
 Proton mass [kg]                                           1.67262163700000E-27
 Fine-structure constant                                    7.29735253760000E-03
 Rydberg constant [1/m]                                     1.09737315685270E+07
 Avogadro constant [1/mol]                                  6.02214179000000E+23
 Boltzmann constant [J/K]                                   1.38065040000000E-23
 Atomic mass unit [kg]                                      1.66053878200000E-27
 Bohr radius [m]                                            5.29177208590000E-11

 *** Conversion factors ***

 [u] -> [a.u.]                                              1.82288848426455E+03
 [Angstrom] -> [Bohr] = [a.u.]                              1.88972613288564E+00
 [a.u.] = [Bohr] -> [Angstrom]                              5.29177208590000E-01
 [a.u.] -> [s]                                              2.41888432650478E-17
 [a.u.] -> [fs]                                             2.41888432650478E-02
 [a.u.] -> [J]                                              4.35974393937059E-18
 [a.u.] -> [N]                                              8.23872205491840E-08
 [a.u.] -> [K]                                              3.15774647902944E+05
 [a.u.] -> [kJ/mol]                                         2.62549961709828E+03
 [a.u.] -> [kcal/mol]                                       6.27509468713739E+02
 [a.u.] -> [Pa]                                             2.94210107994716E+13
 [a.u.] -> [bar]                                            2.94210107994716E+08
 [a.u.] -> [atm]                                            2.90362800883016E+08
 [a.u.] -> [eV]                                             2.72113838565563E+01
 [a.u.] -> [Hz]                                             6.57968392072181E+15
 [a.u.] -> [1/cm] (wave numbers)                            2.19474631370540E+05
 [a.u./Bohr**2] -> [1/cm]                                   5.14048714338585E+03
 

 CELL_TOP| Volume [angstrom^3]:                                      5900.012422
 CELL_TOP| Vector a [angstrom    19.648     0.000     0.000   |a| =    19.648000
 CELL_TOP| Vector b [angstrom     8.669    15.014     0.000   |b| =    17.337000
 CELL_TOP| Vector c [angstrom     0.000     0.000    20.000   |c| =    20.000000
 CELL_TOP| Angle (b,c), alpha [degree]:                                90.000000
 CELL_TOP| Angle (a,c), beta  [degree]:                                90.000000
 CELL_TOP| Angle (a,b), gamma [degree]:                                60.000000
 CELL_TOP| Numerically orthorhombic:                                          NO
 CELL_TOP| Periodicity                                                       XYZ


 SUBCELL GRID  INFO FOR THE NONBONDED NEIGHBOR LISTS

    NUMBER OF SUBCELLS             ::                   6         6         7
    NUMBER OF PERIODIC      IMAGES ::                   1         1         1
    NUMBER OF INTERACTING SUBCELLS ::                   2         2         2

 GENERATE|  Preliminary Number of Bonds generated:                             0
 GENERATE|  Achieved consistency in connectivity generation.

 CELL| Volume [angstrom^3]:                                          5900.012422
 CELL| Vector a [angstrom]:      19.648     0.000     0.000   |a| =    19.648000
 CELL| Vector b [angstrom]:       8.669    15.014     0.000   |b| =    17.337000
 CELL| Vector c [angstrom]:       0.000     0.000    20.000   |c| =    20.000000
 CELL| Angle (b,c), alpha [degree]:                                    90.000000
 CELL| Angle (a,c), beta  [degree]:                                    90.000000
 CELL| Angle (a,b), gamma [degree]:                                    60.000000
 CELL| Numerically orthorhombic:                                              NO
 CELL| Periodicity                                                           XYZ

 CELL_REF| Volume [angstrom^3]:                                      5900.012422
 CELL_REF| Vector a [angstrom    19.648     0.000     0.000   |a| =    19.648000
 CELL_REF| Vector b [angstrom     8.669    15.014     0.000   |b| =    17.337000
 CELL_REF| Vector c [angstrom     0.000     0.000    20.000   |c| =    20.000000
 CELL_REF| Angle (b,c), alpha [degree]:                                90.000000
 CELL_REF| Angle (a,c), beta  [degree]:                                90.000000
 CELL_REF| Angle (a,b), gamma [degree]:                                60.000000
 CELL_REF| Numerically orthorhombic:                                          NO
 CELL_REF| Periodicity                                                       XYZ

 *******************************************************************************
 *******************************************************************************
 **                                                                           **
 **     #####                         ##              ##                      **
 **    ##   ##            ##          ##              ##                      **
 **   ##     ##                       ##            ######                    **
 **   ##     ##  ##   ##  ##   #####  ##  ##   ####   ##    #####    #####    **
 **   ##     ##  ##   ##  ##  ##      ## ##   ##      ##   ##   ##  ##   ##   **
 **   ##  ## ##  ##   ##  ##  ##      ####     ###    ##   ######   ######    **
 **    ##  ###   ##   ##  ##  ##      ## ##      ##   ##   ##       ##        **
 **     #######   #####   ##   #####  ##  ##  ####    ##    #####   ##        **
 **           ##                                                    ##        **
 **                                                                           **
 **                                                ... make the atoms dance   **
 **                                                                           **
 **            Copyright (C) by CP2K developers group (2000-2022)             **
 **                      J. Chem. Phys. 152, 194103 (2020)                    **
 **                                                                           **
 *******************************************************************************

 RADII: ORBITAL BASIS in angstrom            Kind   Label     Radius  OCE Radius
                                                1   C       5.464310    5.464310
                                                2   Cx     10.586320   10.586320
                                                3   O       4.507742    4.507742
                                                4   H       6.136928    6.136928

 RADII: SHELL SETS OF ORBITAL BASIS in angstrom   Kind  Label   Set       Radius
                                                     1  C         1     5.464310
                                                     2  Cx        1     1.029760
                                                                  2     2.248558
                                                                  3     3.510222
                                                                  4     5.301536
                                                                  5     8.278841
                                                                  6     2.111957
                                                                  7     3.589446
                                                                  8     6.086067
                                                                  9    10.586320
                                                                 10     1.764030
                                                                 11     3.018919
                                                                 12     6.928919
                                                                 13     2.271820
                                                                 14     6.534266
                                                     3  O         1     4.507742
                                                     4  H         1     6.136928

 RADII: PRIMITIVE GAUSSIANS OF ORBITAL BASIS in anKindomLabel   Set       Radius
                                                     1  C         1     0.802859
                                                                        1.314668
                                                                        2.308781
                                                                        3.176889
                                                                        5.464310
                                                     2  Cx        1     0.020115
                                                                        0.053438
                                                                        0.114577
                                                                        0.218970
                                                                        0.387975
                                                                        0.647712
                                                                        1.029760
                                                     2  Cx        2     0.735149
                                                                        2.248558
                                                     2  Cx        3     3.510222
                                                     2  Cx        4     5.301536
                                                     2  Cx        5     8.278841
                                                     2  Cx        6     0.299696
                                                                        0.653823
                                                                        1.233581
                                                                        2.111957
                                                     2  Cx        7     3.589446
                                                     2  Cx        8     6.086067
                                                     2  Cx        9    10.586320
                                                     2  Cx       10     1.764030
                                                     2  Cx       11     3.018919
                                                     2  Cx       12     6.928919
                                                     2  Cx       13     2.271820
                                                     2  Cx       14     6.534266
                                                     3  O         1     0.600974
                                                                        0.986050
                                                                        1.751928
                                                                        2.868746
                                                                        4.507742
                                                     4  H         1     0.531136
                                                                        1.107669
                                                                        2.077823
                                                                        3.655422
                                                                        6.136928

 RADII: AUXILLIARY BASIS in angstrom         Kind   Label     Radius  OCE Radius
                                                          1   C         no basis
                                                          2   Cx        no basis
                                                          3   O         no basis
                                                          4   H         no basis

 RADII: SHELL SETS OF AUXILLIARY BASIS in angstromKind  Label   Set       Radius
                                                     1   C              no basis
                                                     2   Cx             no basis
                                                     3   O              no basis
                                                     4   H              no basis

 RADII: PRIMITIVE GAUSSIANS OF AUXILLIARY BASIS inKindstLabel   Set       Radius
                                                     1   C              no basis
                                                     2   Cx             no basis
                                                     3   O              no basis
                                                     4   H              no basis

 RADII: LOCAL RI BASIS in angstrom           Kind   Label     Radius  OCE Radius
                                                          1   C         no basis
                                                          2   Cx        no basis
                                                          3   O         no basis
                                                          4   H         no basis

 RADII: SHELL SETS OF LOCAL RI BASIS in angstrom  Kind  Label   Set       Radius
                                                     1   C              no basis
                                                     2   Cx             no basis
                                                     3   O              no basis
                                                     4   H              no basis

 RADII: PRIMITIVE GAUSSIANS OF LOCAL RI BASIS in aKindroLabel   Set       Radius
                                                     1   C              no basis
                                                     2   Cx             no basis
                                                     3   O              no basis
                                                     4   H              no basis

 RADII: CORE CHARGE DISTRIBUTIONS in angstrom          Kind   Label       Radius
                                                          1   C         1.376023
                                                          2   Cx        1.425687
                                                          3   O         1.017201
                                                          4   H         0.815723

 RADII: LOCAL PART OF GTH/ELP PP in angstrom           Kind   Label       Radius
                                                          1   C         0.699284
                                                          3   O         0.528197
                                                          4   H         0.393411

 RADII: NON-LOCAL PART OF GTH PP in angstrom           Kind   Label       Radius
                                                          1   C         0.838527
                                                          3   O         0.622773
                                                          4   H         0.000000

 RADII: ONE CENTER PROJECTORS in angstrom              Kind   Label       Radius
                                                          1   C         0.895066
                                                          2   Cx        0.895384
                                                          3   O         0.895066
                                                          4   H         0.712046

 DISTRIBUTION OF THE MOLECULES                    Process    Number of molecules
                                                        0                      7
                                                        1                      8
                                                        2                      8
                                                        3                      7
                                                        4                      7
                                                        5                      5
                                                        6                      7
                                                        7                      7
                                                        8                      7
                                                        9                      7
                                                       10                      7
                                                       11                      7
                                                       12                      8
                                                       13                      8
                                                       14                      7
                                                       15                      7
                                                      Sum                    114

  Process   Kind   Local molecules (global indices)
        0      1         1
               2
               3
               4
               5
               6
               7
               8
               9
              10
              11
              12
              13
              14
              15
              16
              17
              18
              19
              20
              21        21
              22
              23
              24
              25
              26
              27
              28
              29
              30
              31
              32
              33
              34
              35
              36
              37
              38
              39
              40        40
              41
              42
              43
              44
              45
              46
              47
              48
              49
              50        50
              51
              52
              53
              54
              55
              56
              57
              58
              59
              60
              61
              62
              63
              64
              65
              66
              67        67
              68
              69
              70
              71
              72
              73
              74
              75
              76
              77
              78
              79
              80
              81        81
              82
              83
              84
              85
              86
              87
              88
              89
              90
              91
              92
              93
              94
              95
              96
              97
              98
              99        99
             100
             101
             102
             103
             104
             105
             106
             107
             108
             109
             110
             111
             112
             113
             114

 DISTRIBUTION OF THE PARTICLES                    Process    Number of particles
                                                        0                      7
                                                        1                      8
                                                        2                      8
                                                        3                      7
                                                        4                      7
                                                        5                      5
                                                        6                      7
                                                        7                      7
                                                        8                      7
                                                        9                      7
                                                       10                      7
                                                       11                      7
                                                       12                      8
                                                       13                      8
                                                       14                      7
                                                       15                      7
                                                      Sum                    114

  Process   Kind   Local particles (global indices)
        0      1        1    21    40    50    67    81    99
               2
               3
               4

 DFT| Spin unrestricted (spin-polarized) Kohn-Sham calculation               UKS
 DFT| Multiplicity                                                             2
 DFT| Number of spin states                                                    2
 DFT| Charge                                                                   0
 DFT| Self-interaction correction (SIC)                                       NO
 DFT| Cutoffs: density                                              1.000000E-10
 DFT|          gradient                                             1.000000E-10
 DFT|          tau                                                  1.000000E-10
 DFT|          cutoff_smoothing_range                               0.000000E+00
 DFT| XC density smoothing                                                  NONE
 DFT| XC derivatives                                                          PW

 FUNCTIONAL| GGA_X_PBE:
 FUNCTIONAL| [1] J. P. Perdew, K. Burke, and M. Ernzerhof, Phys. Rev. Lett. 77, 
 FUNCTIONAL| 3865 (1996), doi: 10.1103/PhysRevLett.77.3865                      
 FUNCTIONAL| Optional external parameters:                                      
 FUNCTIONAL|  * Asymptotic value of the enhancement function                    
 FUNCTIONAL|  * Coefficient of the 2nd order expansion                          
 FUNCTIONAL| {scale=0.550, spin-polarized}                                      
 FUNCTIONAL| GGA_C_PBE:
 FUNCTIONAL| [1] J. P. Perdew, K. Burke, and M. Ernzerhof, Phys. Rev. Lett. 77, 
 FUNCTIONAL| 3865 (1996), doi: 10.1103/PhysRevLett.77.3865                      
 FUNCTIONAL| Optional external parameters:                                      
 FUNCTIONAL|  * beta constant                                                   
 FUNCTIONAL|  * (1 - ln(2))/Pi^2 in the PBE                                     
 FUNCTIONAL|  * Multiplies the A t^2 term. Used in the SPBE functional          
 FUNCTIONAL| {scale=1.000, spin-polarized}                                      


 QS| Method:                                                                GAPW
 QS| Density plane wave grid type                        NON-SPHERICAL FULLSPACE
 QS| Number of grid levels:                                                    5
 QS| Density cutoff [a.u.]:                                                300.0
 QS| Multi grid cutoff [a.u.]: 1) grid level                               300.0
 QS|                           2) grid level                               100.0
 QS|                           3) grid level                                33.3
 QS|                           4) grid level                                11.1
 QS|                           5) grid level                                 3.7
 QS| Grid level progression factor:                                          3.0
 QS| Relative density cutoff [a.u.]:                                        25.0
 QS| Interaction thresholds: eps_pgf_orb:                                1.0E-05
 QS|                         eps_filter_matrix:                          0.0E+00
 QS|                         eps_core_charge:                            1.0E-12
 QS|                         eps_rho_gspace:                             1.0E-10
 QS|                         eps_rho_rspace:                             1.0E-10
 QS|                         eps_gvg_rspace:                             1.0E-05
 QS|                         eps_ppl:                                    1.0E-02
 QS|                         eps_ppnl:                                   1.0E-07
 QS| GAPW|                   eps_fit:                                    1.0E-04
 QS| GAPW|                   eps_iso:                                    1.0E-12
 QS| GAPW|                   eps_svd:                                    1.0E-08
 QS| GAPW|                   eps_cpc:                                    1.0E-10
 QS| GAPW|   atom-r-grid: quadrature:                                     GC_LOG
 QS| GAPW|      atom-s-grid:  max l :                                          6
 QS| GAPW|      max_l_rho0 :                                                   2


 ATOMIC KIND INFORMATION

  1. Atomic kind: C                                     Number of atoms:     111

     Orbital Basis Set                                        DZVP-MOLOPT-SR-GTH

       Number of orbital shell sets:                                           1
       Number of orbital shells:                                               5
       Number of primitive Cartesian functions:                                5
       Number of Cartesian basis functions:                                   14
       Number of spherical basis functions:                                   13
       Norm type:                                                              2

       Normalised Cartesian orbitals:

                        Set   Shell   Orbital            Exponent    Coefficient

                          1       1    2s                5.605331       0.322515
                                                         2.113016       0.213043
                                                         0.769911      -0.209686
                                                         0.348157      -0.219794
                                                         0.128212      -0.022789

                          1       2    3s                5.605331       0.552234
                                                         2.113016       0.082072
                                                         0.769911       0.007843
                                                         0.348157       0.136893
                                                         0.128212       0.074283

                          1       3    3px               5.605331      -0.703879
                                                         2.113016      -0.642521
                                                         0.769911      -0.374851
                                                         0.348157      -0.139743
                                                         0.128212      -0.027849
                          1       3    3py               5.605331      -0.703879
                                                         2.113016      -0.642521
                                                         0.769911      -0.374851
                                                         0.348157      -0.139743
                                                         0.128212      -0.027849
                          1       3    3pz               5.605331      -0.703879
                                                         2.113016      -0.642521
                                                         0.769911      -0.374851
                                                         0.348157      -0.139743
                                                         0.128212      -0.027849

                          1       4    4px               5.605331      -0.480376
                                                         2.113016      -0.552894
                                                         0.769911      -0.316145
                                                         0.348157       0.210505
                                                         0.128212       0.076095
                          1       4    4py               5.605331      -0.480376
                                                         2.113016      -0.552894
                                                         0.769911      -0.316145
                                                         0.348157       0.210505
                                                         0.128212       0.076095
                          1       4    4pz               5.605331      -0.480376
                                                         2.113016      -0.552894
                                                         0.769911      -0.316145
                                                         0.348157       0.210505
                                                         0.128212       0.076095

                          1       5    4dx2              5.605331       0.640026
                                                         2.113016       0.274300
                                                         0.769911       0.446711
                                                         0.348157       0.028674
                                                         0.128212       0.029790
                          1       5    4dxy              5.605331       1.108557
                                                         2.113016       0.475102
                                                         0.769911       0.773726
                                                         0.348157       0.049666
                                                         0.128212       0.051599
                          1       5    4dxz              5.605331       1.108557
                                                         2.113016       0.475102
                                                         0.769911       0.773726
                                                         0.348157       0.049666
                                                         0.128212       0.051599
                          1       5    4dy2              5.605331       0.640026
                                                         2.113016       0.274300
                                                         0.769911       0.446711
                                                         0.348157       0.028674
                                                         0.128212       0.029790
                          1       5    4dyz              5.605331       1.108557
                                                         2.113016       0.475102
                                                         0.769911       0.773726
                                                         0.348157       0.049666
                                                         0.128212       0.051599
                          1       5    4dz2              5.605331       0.640026
                                                         2.113016       0.274300
                                                         0.769911       0.446711
                                                         0.348157       0.028674
                                                         0.128212       0.029790

     Auxiliary Fit Basis Set                                                FIT3

       Number of orbital shell sets:                                           6
       Number of orbital shells:                                               6
       Number of primitive Cartesian functions:                                6
       Number of Cartesian basis functions:                                   12
       Number of spherical basis functions:                                   12
       Norm type:                                                              2

       Normalised Cartesian orbitals:

                        Set   Shell   Orbital            Exponent    Coefficient

                          1       1    1s                0.143490       0.166160

                          2       1    1s                0.450840       0.392127

                          3       1    1s                4.420950       2.172935

                          4       1    1px               0.152150       0.135450
                          4       1    1py               0.152150       0.135450
                          4       1    1pz               0.152150       0.135450

                          5       1    1px               0.670820       0.865362
                          5       1    1py               0.670820       0.865362
                          5       1    1pz               0.670820       0.865362

                          6       1    1px               3.053900       5.754513
                          6       1    1py               3.053900       5.754513
                          6       1    1pz               3.053900       5.754513

       Atomic covalent radius [Angstrom]:                                  0.770

       Atomic van der Waals radius [Angstrom]:                             1.700

     The atoms of this atomic kind are PAW atoms (GAPW):
       Hard Gaussian function radius:                                      1.512
       Rho0 radius:                                                        1.512
       Maximum GTO radius used for PAW projector construction:            24.566

     GAPW Soft Basis Set                                 DZVP-MOLOPT-SR-GTH_soft

       Number of orbital shell sets:                                           1
       Number of orbital shells:                                               5
       Number of primitive Cartesian functions:                                4
       Number of Cartesian basis functions:                                   14
       Number of spherical basis functions:                                   13
       Norm type:                                                              2

       Normalised Cartesian orbitals:

                        Set   Shell   Orbital            Exponent    Coefficient

                          1       1    2s                2.113016       0.213043
                                                         0.769911      -0.209686
                                                         0.348157      -0.219794
                                                         0.128212      -0.022789

                          1       2    3s                2.113016       0.082072
                                                         0.769911       0.007843
                                                         0.348157       0.136893
                                                         0.128212       0.074283

                          1       3    3px               2.113016      -0.642521
                                                         0.769911      -0.374851
                                                         0.348157      -0.139743
                                                         0.128212      -0.027849
                          1       3    3py               2.113016      -0.642521
                                                         0.769911      -0.374851
                                                         0.348157      -0.139743
                                                         0.128212      -0.027849
                          1       3    3pz               2.113016      -0.642521
                                                         0.769911      -0.374851
                                                         0.348157      -0.139743
                                                         0.128212      -0.027849

                          1       4    4px               2.113016      -0.552894
                                                         0.769911      -0.316145
                                                         0.348157       0.210505
                                                         0.128212       0.076095
                          1       4    4py               2.113016      -0.552894
                                                         0.769911      -0.316145
                                                         0.348157       0.210505
                                                         0.128212       0.076095
                          1       4    4pz               2.113016      -0.552894
                                                         0.769911      -0.316145
                                                         0.348157       0.210505
                                                         0.128212       0.076095

                          1       5    4dx2              2.113016       0.274300
                                                         0.769911       0.446711
                                                         0.348157       0.028674
                                                         0.128212       0.029790
                          1       5    4dxy              2.113016       0.475102
                                                         0.769911       0.773726
                                                         0.348157       0.049666
                                                         0.128212       0.051599
                          1       5    4dxz              2.113016       0.475102
                                                         0.769911       0.773726
                                                         0.348157       0.049666
                                                         0.128212       0.051599
                          1       5    4dy2              2.113016       0.274300
                                                         0.769911       0.446711
                                                         0.348157       0.028674
                                                         0.128212       0.029790
                          1       5    4dyz              2.113016       0.475102
                                                         0.769911       0.773726
                                                         0.348157       0.049666
                                                         0.128212       0.051599
                          1       5    4dz2              2.113016       0.274300
                                                         0.769911       0.446711
                                                         0.348157       0.028674
                                                         0.128212       0.029790

     GTH Potential information for                                       GTH-PBE

       Description:                       Goedecker-Teter-Hutter pseudopotential
                                           Goedecker et al., PRB 54, 1703 (1996)
                                          Hartwigsen et al., PRB 58, 3641 (1998)
                                                      Krack, TCA 114, 145 (2005)

       Gaussian exponent of the core charge distribution:               4.364419
       Electronic configuration (s p d ...):                               2   2

       Parameters of the local part of the GTH pseudopotential:

                          rloc        C1          C2          C3          C4
                        0.338471   -8.803674    1.339211

       Parameters of the non-local part of the GTH pseudopotential:

                   l      r(l)      h(i,j,l)

                   0    0.302576    9.622487
                   1    0.291507

  2. Atomic kind: Cx                                    Number of atoms:       1

     Orbital Basis Set                                               aug-pcseg-2

       Number of orbital shell sets:                                          14
       Number of orbital shells:                                              14
       Number of primitive Cartesian functions:                               24
       Number of Cartesian basis functions:                                   55
       Number of spherical basis functions:                                   46
       Norm type:                                                              2

       Normalised Cartesian orbitals:

                        Set   Shell   Orbital            Exponent    Coefficient

                          1       1    1s             7319.990000       0.349375
                                                      1098.180000       0.650557
                                                       250.014000       1.096680
                                                        70.758600       1.627573
                                                        22.859500       1.933206
                                                         8.039360       1.515585
                                                         2.893090       0.510144

                          2       1    1s                5.216400      -0.507287
                                                         0.556124       0.494060

                          3       1    1s                0.228813       0.235787

                          4       1    1s                0.093634       0.120638

                          5       1    1s                0.035418       0.058187

                          6       1    1px              33.985500       1.362795
                                                         7.729570       1.535057
                                                         2.249540       1.244013
                                                         0.767681       0.729116
                          6       1    1py              33.985500       1.362795
                                                         7.729570       1.535057
                                                         2.249540       1.244013
                                                         0.767681       0.729116
                          6       1    1pz              33.985500       1.362795
                                                         7.729570       1.535057
                                                         2.249540       1.244013
                                                         0.767681       0.729116

                          7       1    1px               0.263283       0.268824
                          7       1    1py               0.263283       0.268824
                          7       1    1pz               0.263283       0.268824

                          8       1    1px               0.084874       0.065300
                          8       1    1py               0.084874       0.065300
                          8       1    1pz               0.084874       0.065300

                          9       1    1px               0.025704       0.014670
                          9       1    1py               0.025704       0.014670
                          9       1    1pz               0.025704       0.014670

                         10       1    1dx2              1.400000       2.965743
                         10       1    1dxy              1.400000       5.136818
                         10       1    1dxz              1.400000       5.136818
                         10       1    1dy2              1.400000       2.965743
                         10       1    1dyz              1.400000       5.136818
                         10       1    1dz2              1.400000       2.965743

                         11       1    1dx2              0.450000       0.406941
                         11       1    1dxy              0.450000       0.704842
                         11       1    1dxz              0.450000       0.704842
                         11       1    1dy2              0.450000       0.406941
                         11       1    1dyz              0.450000       0.704842
                         11       1    1dz2              0.450000       0.406941

                         12       1    1dx2              0.077111       0.018572
                         12       1    1dxy              0.077111       0.032168
                         12       1    1dxz              0.077111       0.032168
                         12       1    1dy2              0.077111       0.018572
                         12       1    1dyz              0.077111       0.032168
                         12       1    1dz2              0.077111       0.018572

                         13       1    1fx3              0.950000       1.311694
                         13       1    1fx2y             0.950000       2.933037
                         13       1    1fx2z             0.950000       2.933037
                         13       1    1fxy2             0.950000       2.933037
                         13       1    1fxyz             0.950000       5.080169
                         13       1    1fxz2             0.950000       2.933037
                         13       1    1fy3              0.950000       1.311694
                         13       1    1fy2z             0.950000       2.933037
                         13       1    1fyz2             0.950000       2.933037
                         13       1    1fz3              0.950000       1.311694

                         14       1    1fx3              0.102810       0.008811
                         14       1    1fx2y             0.102810       0.019702
                         14       1    1fx2z             0.102810       0.019702
                         14       1    1fxy2             0.102810       0.019702
                         14       1    1fxyz             0.102810       0.034126
                         14       1    1fxz2             0.102810       0.019702
                         14       1    1fy3              0.102810       0.008811
                         14       1    1fy2z             0.102810       0.019702
                         14       1    1fyz2             0.102810       0.019702
                         14       1    1fz3              0.102810       0.008811

     Auxiliary Fit Basis Set                                          aug-admm-2

       Number of orbital shell sets:                                           3
       Number of orbital shells:                                              10
       Number of primitive Cartesian functions:                               12
       Number of Cartesian basis functions:                                   26
       Number of spherical basis functions:                                   24
       Norm type:                                                              2

       Normalised Cartesian orbitals:

                        Set   Shell   Orbital            Exponent    Coefficient

                          1       1    1s              109.016000       4.923462
                                                        18.264600       5.452682
                                                         4.347920       0.000000
                                                         0.481253       0.000000
                                                         0.143588       0.000000
                                                         0.040429       0.000000

                          1       2    2s              109.016000       0.000000
                                                        18.264600       0.000000
                                                         4.347920       2.145958
                                                         0.481253       0.000000
                                                         0.143588       0.000000
                                                         0.040429       0.000000

                          1       3    3s              109.016000       0.000000
                                                        18.264600       0.000000
                                                         4.347920       0.000000
                                                         0.481253       0.411804
                                                         0.143588       0.000000
                                                         0.040429       0.000000

                          1       4    4s              109.016000       0.000000
                                                        18.264600       0.000000
                                                         4.347920       0.000000
                                                         0.481253       0.000000
                                                         0.143588       0.166245
                                                         0.040429       0.000000

                          1       5    5s              109.016000       0.000000
                                                        18.264600       0.000000
                                                         4.347920       0.000000
                                                         0.481253       0.000000
                                                         0.143588       0.000000
                                                         0.040429       0.064258

                          2       1    1px               2.823390       1.538017
                                                         0.590232       0.604745
                                                         0.152426       0.000000
                                                         0.038107       0.000000
                          2       1    1py               2.823390       1.538017
                                                         0.590232       0.604745
                                                         0.152426       0.000000
                                                         0.038107       0.000000
                          2       1    1pz               2.823390       1.538017
                                                         0.590232       0.604745
                                                         0.152426       0.000000
                                                         0.038107       0.000000

                          2       2    2px               2.823390       0.000000
                                                         0.590232       0.000000
                                                         0.152426       0.135758
                                                         0.038107       0.000000
                          2       2    2py               2.823390       0.000000
                                                         0.590232       0.000000
                                                         0.152426       0.135758
                                                         0.038107       0.000000
                          2       2    2pz               2.823390       0.000000
                                                         0.590232       0.000000
                                                         0.152426       0.135758
                                                         0.038107       0.000000

                          2       3    3px               2.823390       0.000000
                                                         0.590232       0.000000
                                                         0.152426       0.000000
                                                         0.038107       0.023999
                          2       3    3py               2.823390       0.000000
                                                         0.590232       0.000000
                                                         0.152426       0.000000
                                                         0.038107       0.023999
                          2       3    3pz               2.823390       0.000000
                                                         0.590232       0.000000
                                                         0.152426       0.000000
                                                         0.038107       0.023999

                          3       1    1dx2              0.800000       1.113825
                                                         0.114320       0.000000
                          3       1    1dxy              0.800000       1.929201
                                                         0.114320       0.000000
                          3       1    1dxz              0.800000       1.929201
                                                         0.114320       0.000000
                          3       1    1dy2              0.800000       1.113825
                                                         0.114320       0.000000
                          3       1    1dyz              0.800000       1.929201
                                                         0.114320       0.000000
                          3       1    1dz2              0.800000       1.113825
                                                         0.114320       0.000000

                          3       2    2dx2              0.800000       0.000000
                                                         0.114320       0.036993
                          3       2    2dxy              0.800000       0.000000
                                                         0.114320       0.064074
                          3       2    2dxz              0.800000       0.000000
                                                         0.114320       0.064074
                          3       2    2dy2              0.800000       0.000000
                                                         0.114320       0.036993
                          3       2    2dyz              0.800000       0.000000
                                                         0.114320       0.064074
                          3       2    2dz2              0.800000       0.000000
                                                         0.114320       0.036993

       Atomic covalent radius [Angstrom]:                                  0.770

       Atomic van der Waals radius [Angstrom]:                             1.700

     The atoms of this atomic kind are PAW atoms (GAPW):
       Hard Gaussian function radius:                                      1.512
       Rho0 radius:                                                        1.512
       Maximum GTO radius used for PAW projector construction:            24.566

     GAPW Soft Basis Set                                        aug-pcseg-2_soft

       Number of orbital shell sets:                                          14
       Number of orbital shells:                                              14
       Number of primitive Cartesian functions:                               15
       Number of Cartesian basis functions:                                   55
       Number of spherical basis functions:                                   46
       Norm type:                                                              2

       Normalised Cartesian orbitals:

                        Set   Shell   Orbital            Exponent    Coefficient

                          1       1    1s                2.893090       0.510144

                          2       1    1s                0.556124       0.494060

                          3       1    1s                0.228813       0.235787

                          4       1    1s                0.093634       0.120638

                          5       1    1s                0.035418       0.058187

                          6       1    1px               2.249540       1.244013
                                                         0.767681       0.729116
                          6       1    1py               2.249540       1.244013
                                                         0.767681       0.729116
                          6       1    1pz               2.249540       1.244013
                                                         0.767681       0.729116

                          7       1    1px               0.263283       0.268824
                          7       1    1py               0.263283       0.268824
                          7       1    1pz               0.263283       0.268824

                          8       1    1px               0.084874       0.065300
                          8       1    1py               0.084874       0.065300
                          8       1    1pz               0.084874       0.065300

                          9       1    1px               0.025704       0.014670
                          9       1    1py               0.025704       0.014670
                          9       1    1pz               0.025704       0.014670

                         10       1    1dx2              1.400000       2.965743
                         10       1    1dxy              1.400000       5.136818
                         10       1    1dxz              1.400000       5.136818
                         10       1    1dy2              1.400000       2.965743
                         10       1    1dyz              1.400000       5.136818
                         10       1    1dz2              1.400000       2.965743

                         11       1    1dx2              0.450000       0.406941
                         11       1    1dxy              0.450000       0.704842
                         11       1    1dxz              0.450000       0.704842
                         11       1    1dy2              0.450000       0.406941
                         11       1    1dyz              0.450000       0.704842
                         11       1    1dz2              0.450000       0.406941

                         12       1    1dx2              0.077111       0.018572
                         12       1    1dxy              0.077111       0.032168
                         12       1    1dxz              0.077111       0.032168
                         12       1    1dy2              0.077111       0.018572
                         12       1    1dyz              0.077111       0.032168
                         12       1    1dz2              0.077111       0.018572

                         13       1    1fx3              0.950000       1.311694
                         13       1    1fx2y             0.950000       2.933037
                         13       1    1fx2z             0.950000       2.933037
                         13       1    1fxy2             0.950000       2.933037
                         13       1    1fxyz             0.950000       5.080169
                         13       1    1fxz2             0.950000       2.933037
                         13       1    1fy3              0.950000       1.311694
                         13       1    1fy2z             0.950000       2.933037
                         13       1    1fyz2             0.950000       2.933037
                         13       1    1fz3              0.950000       1.311694

                         14       1    1fx3              0.102810       0.008811
                         14       1    1fx2y             0.102810       0.019702
                         14       1    1fx2z             0.102810       0.019702
                         14       1    1fxy2             0.102810       0.019702
                         14       1    1fxyz             0.102810       0.034126
                         14       1    1fxz2             0.102810       0.019702
                         14       1    1fy3              0.102810       0.008811
                         14       1    1fy2z             0.102810       0.019702
                         14       1    1fyz2             0.102810       0.019702
                         14       1    1fz3              0.102810       0.008811

     AE Potential information for                                            ALL

       Description:                                       All-electron potential
                                          Krack, Parrinello, PCCP 2, 2105 (2000)

       Gaussian exponent of the core charge distribution:               4.109048
       Electronic configuration (s p d ...):                           4   2   0

  3. Atomic kind: O                                     Number of atoms:       1

     Orbital Basis Set                                        DZVP-MOLOPT-SR-GTH

       Number of orbital shell sets:                                           1
       Number of orbital shells:                                               5
       Number of primitive Cartesian functions:                                5
       Number of Cartesian basis functions:                                   14
       Number of spherical basis functions:                                   13
       Norm type:                                                              2

       Normalised Cartesian orbitals:

                        Set   Shell   Orbital            Exponent    Coefficient

                          1       1    2s               10.389228       0.396646
                                                         3.849621       0.208811
                                                         1.388401      -0.301641
                                                         0.496955      -0.274061
                                                         0.162492      -0.033677

                          1       2    3s               10.389228       0.303673
                                                         3.849621       0.240943
                                                         1.388401      -0.313066
                                                         0.496955      -0.043055
                                                         0.162492       0.213991

                          1       3    3px              10.389228      -1.530415
                                                         3.849621      -1.371928
                                                         1.388401      -0.761951
                                                         0.496955      -0.253695
                                                         0.162492      -0.035541
                          1       3    3py              10.389228      -1.530415
                                                         3.849621      -1.371928
                                                         1.388401      -0.761951
                                                         0.496955      -0.253695
                                                         0.162492      -0.035541
                          1       3    3pz              10.389228      -1.530415
                                                         3.849621      -1.371928
                                                         1.388401      -0.761951
                                                         0.496955      -0.253695
                                                         0.162492      -0.035541

                          1       4    4px              10.389228      -0.565392
                                                         3.849621      -0.038231
                                                         1.388401      -0.382373
                                                         0.496955       0.179070
                                                         0.162492       0.122714
                          1       4    4py              10.389228      -0.565392
                                                         3.849621      -0.038231
                                                         1.388401      -0.382373
                                                         0.496955       0.179070
                                                         0.162492       0.122714
                          1       4    4pz              10.389228      -0.565392
                                                         3.849621      -0.038231
                                                         1.388401      -0.382373
                                                         0.496955       0.179070
                                                         0.162492       0.122714

                          1       5    4dx2             10.389228       1.867377
                                                         3.849621       0.670994
                                                         1.388401       1.353441
                                                         0.496955       0.273538
                                                         0.162492       0.006620
                          1       5    4dxy             10.389228       3.234392
                                                         3.849621       1.162195
                                                         1.388401       2.344229
                                                         0.496955       0.473781
                                                         0.162492       0.011466
                          1       5    4dxz             10.389228       3.234392
                                                         3.849621       1.162195
                                                         1.388401       2.344229
                                                         0.496955       0.473781
                                                         0.162492       0.011466
                          1       5    4dy2             10.389228       1.867377
                                                         3.849621       0.670994
                                                         1.388401       1.353441
                                                         0.496955       0.273538
                                                         0.162492       0.006620
                          1       5    4dyz             10.389228       3.234392
                                                         3.849621       1.162195
                                                         1.388401       2.344229
                                                         0.496955       0.473781
                                                         0.162492       0.011466
                          1       5    4dz2             10.389228       1.867377
                                                         3.849621       0.670994
                                                         1.388401       1.353441
                                                         0.496955       0.273538
                                                         0.162492       0.006620

     Auxiliary Fit Basis Set                                                FIT3

       Number of orbital shell sets:                                           6
       Number of orbital shells:                                               6
       Number of primitive Cartesian functions:                                6
       Number of Cartesian basis functions:                                   12
       Number of spherical basis functions:                                   12
       Norm type:                                                              2

       Normalised Cartesian orbitals:

                        Set   Shell   Orbital            Exponent    Coefficient

                          1       1    1s                0.270610       0.267404

                          2       1    1s                0.884930       0.650267

                          3       1    1s                8.504090       3.549204

                          4       1    1px               0.310400       0.330250
                          4       1    1py               0.310400       0.330250
                          4       1    1pz               0.310400       0.330250

                          5       1    1px               1.382560       2.136954
                          5       1    1py               1.382560       2.136954
                          5       1    1pz               1.382560       2.136954

                          6       1    1px               6.082640      13.616178
                          6       1    1py               6.082640      13.616178
                          6       1    1pz               6.082640      13.616178

       Atomic covalent radius [Angstrom]:                                  0.730

       Atomic van der Waals radius [Angstrom]:                             1.520

     The atoms of this atomic kind are PAW atoms (GAPW):
       Hard Gaussian function radius:                                      1.512
       Rho0 radius:                                                        1.512
       Maximum GTO radius used for PAW projector construction:            24.566

     GAPW Soft Basis Set                                 DZVP-MOLOPT-SR-GTH_soft

       Number of orbital shell sets:                                           1
       Number of orbital shells:                                               5
       Number of primitive Cartesian functions:                                4
       Number of Cartesian basis functions:                                   14
       Number of spherical basis functions:                                   13
       Norm type:                                                              2

       Normalised Cartesian orbitals:

                        Set   Shell   Orbital            Exponent    Coefficient

                          1       1    2s                3.849621       0.208811
                                                         1.388401      -0.301641
                                                         0.496955      -0.274061
                                                         0.162492      -0.033677

                          1       2    3s                3.849621       0.240943
                                                         1.388401      -0.313066
                                                         0.496955      -0.043055
                                                         0.162492       0.213991

                          1       3    3px               3.849621      -1.371928
                                                         1.388401      -0.761951
                                                         0.496955      -0.253695
                                                         0.162492      -0.035541
                          1       3    3py               3.849621      -1.371928
                                                         1.388401      -0.761951
                                                         0.496955      -0.253695
                                                         0.162492      -0.035541
                          1       3    3pz               3.849621      -1.371928
                                                         1.388401      -0.761951
                                                         0.496955      -0.253695
                                                         0.162492      -0.035541

                          1       4    4px               3.849621      -0.038231
                                                         1.388401      -0.382373
                                                         0.496955       0.179070
                                                         0.162492       0.122714
                          1       4    4py               3.849621      -0.038231
                                                         1.388401      -0.382373
                                                         0.496955       0.179070
                                                         0.162492       0.122714
                          1       4    4pz               3.849621      -0.038231
                                                         1.388401      -0.382373
                                                         0.496955       0.179070
                                                         0.162492       0.122714

                          1       5    4dx2              3.849621       0.670994
                                                         1.388401       1.353441
                                                         0.496955       0.273538
                                                         0.162492       0.006620
                          1       5    4dxy              3.849621       1.162195
                                                         1.388401       2.344229
                                                         0.496955       0.473781
                                                         0.162492       0.011466
                          1       5    4dxz              3.849621       1.162195
                                                         1.388401       2.344229
                                                         0.496955       0.473781
                                                         0.162492       0.011466
                          1       5    4dy2              3.849621       0.670994
                                                         1.388401       1.353441
                                                         0.496955       0.273538
                                                         0.162492       0.006620
                          1       5    4dyz              3.849621       1.162195
                                                         1.388401       2.344229
                                                         0.496955       0.473781
                                                         0.162492       0.011466
                          1       5    4dz2              3.849621       0.670994
[...]
 flops   376 x    37 x   376           1380960768     100.0%      0.0%      0.0%
 flops   377 x    37 x    37           1381118388     100.0%      0.0%      0.0%
 flops    24 x    12 x    64           1573060608     100.0%      0.0%      0.0%
 flops    12 x    24 x    64           1573060608     100.0%      0.0%      0.0%
 flops    36 x    64 x   376           1668501504     100.0%      0.0%      0.0%
 flops    64 x    36 x   376           1668501504     100.0%      0.0%      0.0%
 flops    64 x    64 x    36           1690730496     100.0%      0.0%      0.0%
 flops    36 x    64 x    64           1690730496     100.0%      0.0%      0.0%
 flops    64 x    36 x    64           1690730496     100.0%      0.0%      0.0%
 flops    37 x    64 x   376           1714848768     100.0%      0.0%      0.0%
 flops    64 x    37 x   376           1714848768     100.0%      0.0%      0.0%
 flops    64 x    64 x    37           1737695232     100.0%      0.0%      0.0%
 flops    37 x    64 x    64           1737695232     100.0%      0.0%      0.0%
 flops    64 x    37 x    64           1737695232     100.0%      0.0%      0.0%
 flops     5 x    32 x    13           2258314240     100.0%      0.0%      0.0%
 flops    13 x    32 x     5           2258314240     100.0%      0.0%      0.0%
 flops   376 x    64 x    36           2318229504     100.0%      0.0%      0.0%
 flops   376 x    36 x    64           2318229504     100.0%      0.0%      0.0%
 flops   376 x    64 x    37           2382624768     100.0%      0.0%      0.0%
 flops   376 x    37 x    64           2382624768     100.0%      0.0%      0.0%
 flops    46 x    13 x    64           3292004352     100.0%      0.0%      0.0%
 flops    13 x    46 x    64           3292004352     100.0%      0.0%      0.0%
 flops   377 x    36 x   376           4041633024     100.0%      0.0%      0.0%
 flops   376 x    36 x   377           4041633024     100.0%      0.0%      0.0%
 flops   377 x    37 x   376           4153900608     100.0%      0.0%      0.0%
 flops   376 x    37 x   377           4153900608     100.0%      0.0%      0.0%
 flops    36 x    64 x   377           5018817024     100.0%      0.0%      0.0%
 flops    64 x    36 x   377           5018817024     100.0%      0.0%      0.0%
 flops    37 x    64 x   377           5158228608     100.0%      0.0%      0.0%
 flops    64 x    37 x   377           5158228608     100.0%      0.0%      0.0%
 flops    13 x     4 x    13           5759790400     100.0%      0.0%      0.0%
 flops   377 x    36 x    64           6973185024     100.0%      0.0%      0.0%
 flops   377 x    64 x    36           6973185024     100.0%      0.0%      0.0%
 flops   377 x    37 x    64           7166884608     100.0%      0.0%      0.0%
 flops   377 x    64 x    37           7166884608     100.0%      0.0%      0.0%
 flops    12 x    12 x    36           7413223680     100.0%      0.0%      0.0%
 flops    12 x    12 x    37           7619146560     100.0%      0.0%      0.0%
 flops    13 x     5 x    13           8057384270     100.0%      0.0%      0.0%
 flops    46 x    13 x    13           8161222940     100.0%      0.0%      0.0%
 flops    13 x    13 x    46           8191432704     100.0%      0.0%      0.0%
 flops    13 x    46 x    13           8192567708     100.0%      0.0%      0.0%
 flops    13 x    13 x    36           9844982784     100.0%      0.0%      0.0%
 flops    13 x    13 x    37          10118454528     100.0%      0.0%      0.0%
 flops   377 x    36 x   377          12157146144     100.0%      0.0%      0.0%
 flops   377 x    37 x   377          12494844648     100.0%      0.0%      0.0%
 flops   376 x    64 x   376          14332133376     100.0%      0.0%      0.0%
 flops    64 x    64 x   376          17797349376     100.0%      0.0%      0.0%
 flops    64 x    64 x    64          18034458624     100.0%      0.0%      0.0%
 flops    46 x    32 x    13          20776491008     100.0%      0.0%      0.0%
 flops    13 x    32 x    46          20776491008     100.0%      0.0%      0.0%
 flops   376 x    64 x    64          24727781376     100.0%      0.0%      0.0%
 flops   376 x    64 x   377          43110752256     100.0%      0.0%      0.0%
 flops   377 x    64 x   376          43110752256     100.0%      0.0%      0.0%
 flops    64 x    64 x   377          53534048256     100.0%      0.0%      0.0%
 flops   377 x    64 x    64          74380640256     100.0%      0.0%      0.0%
 flops    12 x    12 x    64          79074385920     100.0%      0.0%      0.0%
 flops    13 x    13 x    64         105013149696     100.0%      0.0%      0.0%
 flops   377 x    64 x   377         129676225536     100.0%      0.0%      0.0%
 flops    13 x    13 x    13         256160111376     100.0%      0.0%      0.0%
 flops    13 x    32 x    13         656887154560     100.0%      0.0%      0.0%
 flops inhomo. stacks                           0       0.0%      0.0%      0.0%
 flops total                         1.780142E+12     100.0%      0.0%      0.0%
 flops max/rank                    123.245413E+09     100.0%      0.0%      0.0%
 matmuls inhomo. stacks                         0       0.0%      0.0%      0.0%
 matmuls total                          146099957     100.0%      0.0%      0.0%
 number of processed stacks                490702     100.0%      0.0%      0.0%
 average stack size                                   297.7       0.0       0.0
 marketing flops                     2.057365E+12
 -------------------------------------------------------------------------------
 # multiplications                           4316
 max memory usage/rank               1.804997E+09
 # max total images/rank                        1
 # max 3D layers                                1
 # MPI messages exchanged                  414336
 MPI messages size (bytes):
  total size                        94.548296E+09
  min size                           0.000000E+00
  max size                           1.158144E+06
  average size                     228.192328E+03
 MPI breakdown and total messages size (bytes):
             size <=      128                 600                        0
       128 < size <=     8192                   0                        0
      8192 < size <=    32768              165168               4311354096
     32768 < size <=   131072               49740               5409779016
    131072 < size <=  4194304              198828              84825541656
   4194304 < size <= 16777216                   0                        0
  16777216 < size                               0                        0
 -------------------------------------------------------------------------------
 -                                                                             -
 -                      DBCSR MESSAGE PASSING PERFORMANCE                      -
 -                                                                             -
 -------------------------------------------------------------------------------
 ROUTINE             CALLS      AVE VOLUME [Bytes]
 MP_Bcast              164                     12.
 MP_Allreduce        22319                     25.
 MP_Alltoall         33712                  92803.
 MP_ISend            69040                  90934.
 MP_IRecv            69040                  88083.
 -------------------------------------------------------------------------------

 -------------------------------------------------------------------------------
 -                                                                             -
 -                                DBM STATISTICS                               -
 -                                                                             -
 -------------------------------------------------------------------------------
    M  x    N  x    K                                          COUNT     PERCENT
 -------------------------------------------------------------------------------

 -------------------------------------------------------------------------------
 -                                                                             -
 -                                GRID STATISTICS                              -
 -                                                                             -
 -------------------------------------------------------------------------------
 LP    KERNEL             BACKEND                              COUNT     PERCENT
 4     collocate general  REF                               11978488      25.16%
 1     collocate general  REF                                9006258      18.92%
 2     collocate general  REF                                6035418      12.68%
 4     integrate general  REF                                5989248      12.58%
 1     integrate general  REF                                4538496       9.53%
 0     collocate general  REF                                3674990       7.72%
 2     integrate general  REF                                3154272       6.62%
 0     integrate general  REF                                1854656       3.90%
 3     collocate general  REF                                 765202       1.61%
 3     integrate general  REF                                 382976       0.80%
 5     collocate general  REF                                 154112       0.32%
 5     integrate general  REF                                  77056       0.16%
 6     collocate general  REF                                   1024       0.00%
 6     integrate general  REF                                    512       0.00%
 -------------------------------------------------------------------------------

 MEMORY| Estimated peak process memory [MiB]                                1723

 -------------------------------------------------------------------------------
 ----                             MULTIGRID INFO                            ----
 -------------------------------------------------------------------------------
 count for grid        1:         501794          cutoff [a.u.]          300.00
 count for grid        2:         232018          cutoff [a.u.]          100.00
 count for grid        3:         272240          cutoff [a.u.]           33.33
 count for grid        4:         146530          cutoff [a.u.]           11.11
 count for grid        5:          12630          cutoff [a.u.]            3.70
 total gridlevel count  :        1165212

 -------------------------------------------------------------------------------
 -                                                                             -
 -                         MESSAGE PASSING PERFORMANCE                         -
 -                                                                             -
 -------------------------------------------------------------------------------

 ROUTINE             CALLS      AVE VOLUME [Bytes]
 MP_Group                5
 MP_Bcast           129943                  15702.
 MP_Allreduce       169095                   7742.
 MP_Sync              2119
 MP_Alltoall          7912               49668860.
 MP_SendRecv         23040                 211200.
 MP_ISendRecv        19170                 315581.
 MP_Wait             38893
 MP_comm_split         464
 MP_ISend            14344                4137605.
 MP_IRecv            14344                4139372.
 MP_Recv                98                 385792.
 MP_Write_All            9                2528000.
 -------------------------------------------------------------------------------


 -------------------------------------------------------------------------------
 -                                                                             -
 -                           R E F E R E N C E S                               -
 -                                                                             -
 -------------------------------------------------------------------------------
 
 CP2K version 2023.1, the CP2K developers group (2023).
 CP2K is freely available from https://www.cp2k.org/ .

 Kuehne,Thomas D.; Iannuzzi,Marcella; Del Ben,Mauro;
 Rybkin,Vladimir V.; Seewald,Patrick; Stein,Frederick; Laino,Teodoro;
 Khaliullin,Rustam Z.; Schuett,Ole; Schiffmann,Florian; Golze,Dorothea;
 Wilhelm,Jan; Chulkov,Sergey; Bani-Hashemian,Mohammad Hossein;
 Weber,Valery; Borstnik,Urban; Taillefumier,Mathieu;
 Jakobovits,Alice Shoshana; Lazzaro,Alfio; Pabst,Hans; Mueller,Tiziano;
 Schade,Robert; Guidon,Manuel; Andermatt,Samuel; Holmberg,Nico;
 Schenter,Gregory K.; Hehn,Anna; Bussy,Augustin; Belleflamme,Fabian;
 Tabacchi,Gloria; Gloess,Andreas; Lass,Michael; Bethune,Iain;
 Mundy,Christopher J.; Plessl,Christian; Watkins,Matt;
 VandeVondele,Joost; Krack,Matthias; Hutter,Juerg. 
 The Journal of Chemical Physics, 152 (19), (2020). 
 CP2K: An electronic structure and molecular dynamics software package -
 Quickstep: Efficient and accurate electronic structure calculations.
 https://doi.org/10.1063/5.0007045

 Lehtola, S; Steigemann, C; Oliveira, MJT; Marques, MAL. 
 SoftwareX, 7, 1-5 (2018). 
 Recent developments in libxc - A comprehensive library of functionals
 for density functional theory.
 https://doi.org/10.1016/j.softx.2017.11.002

 Schuett, Ole; Messmer, Peter; Hutter, Juerg; VandeVondele, Joost. 
 Electronic Structure Calculations on Graphics Processing Units, John
 Wiley & Sons, Ltd, 173-190 (2016). 
 GPU-Accelerated Sparse Matrix-Matrix Multiplication for
 Linear Scaling Density Functional Theory.
 https://doi.org/10.1002/9781118670712.ch8

 Borstnik, U; VandeVondele, J; Weber, V; Hutter, J. 
 PARALLEL COMPUTING, 40 (5-6), 47-58 (2014). 
 Sparse matrix multiplication: The distributed block-compressed sparse
 row library.
 https://doi.org/10.1016/j.parco.2014.03.012

 Hutter, J; Iannuzzi, M; Schiffmann, F; VandeVondele, J. 
 WIREs Comput Mol Sci., 4 (1), 15-25 (2014). 
 CP2K: atomistic simulations of condensed matter systems.
 https://doi.org/10.1002/wcms.1159

 Marek, A; Blum, V; Johanni, R; Havu, V; Lang, B; Auckenthaler, T;
 Heinecke, A; Bungartz, H; Lederer, H. 
 Journal of Physics: Condensed Matter, 26 (21), (2014). 
 The ELPA library: scalable parallel eigenvalue solutions for
 electronic structure
 theory and computational science.
 https://doi.org/10.1088/0953-8984/26/21/213201

 Marques, MAL; Oliveira, MJT; Burnus, T. 
 COMPUTER PHYSICS COMMUNICATIONS, 183 (10), 2272-2281 (2012). 
 LIBXC: A library of exchange and correlation functionals for density
 functional theory.
 https://doi.org/10.1016/j.cpc.2012.05.007

 Guidon, M; Hutter, J; VandeVondele, J. 
 JOURNAL OF CHEMICAL THEORY AND COMPUTATION, 6 (8), 2348-2364 (2010). 
 Auxiliary Density Matrix Methods for Hartree-Fock Exchange Calculations.
 https://doi.org/10.1021/ct1002225

 Guidon, M; Hutter, J; VandeVondele, J. 
 JOURNAL OF CHEMICAL THEORY AND COMPUTATION, 5 (11), 3010-3021 (2009). 
 Robust Periodic Hartree-Fock Exchange for Large-Scale Simulations Using
 Gaussian Basis Sets.
 https://doi.org/10.1021/ct900494g

 Guidon, M; Schiffmann, F; Hutter, J; VandeVondele, J. 
 JOURNAL OF CHEMICAL PHYSICS, 128 (21), 214104 (2008). 
 Ab initio molecular dynamics using hybrid density functionals.
 https://doi.org/10.1063/1.2931945

 VandeVondele, J; Hutter, J. 
 JOURNAL OF CHEMICAL PHYSICS, 127 (11), 114105 (2007). 
 Gaussian basis sets for accurate calculations on molecular systems in
 gas and condensed phases.
 https://doi.org/10.1063/1.2770708

 Krack, M. 
 THEORETICAL CHEMISTRY ACCOUNTS, 114 (1-3), 145-152 (2005). 
 Pseudopotentials for H to Kr optimized for gradient-corrected
 exchange-correlation functionals.
 https://doi.org/10.1007/s00214-005-0655-y

 Frigo, M; Johnson, SG. 
 PROCEEDINGS OF THE IEEE, 93 (2), 216-231 (2005). 
 The design and implementation of FFTW3.
 https://doi.org/10.1109/JPROC.2004.840301

 Heyd, J; Scuseria, GE. 
 JOURNAL OF CHEMICAL PHYSICS, 120 (16), 7274-7280 (2004). 
 Assessment and validation of a screened Coulomb hybrid density
 functional.
 https://doi.org/10.1063/1.1668634

 VandeVondele, J; Hutter, J. 
 JOURNAL OF CHEMICAL PHYSICS, 118 (10), 4365-4369 (2003). 
 An efficient orbital transformation method for electronic structure
 calculations.
 https://doi.org/10.1063/1.1543154

 Lippert, G; Hutter, J; Parrinello, M. 
 THEORETICAL CHEMISTRY ACCOUNTS, 103 (2), 124-140 (1999). 
 The Gaussian and augmented-plane-wave density functional method for ab
 initio molecular dynamics simulations.
 https://doi.org/10.1007/s002140050523

 Krack, M; Parrinello, M. 
 PHYSICAL CHEMISTRY CHEMICAL PHYSICS, 2 (10), 2105-2112 (2000). 
 All-electron ab-initio molecular dynamics.
 https://doi.org/10.1039/b001167n

 Hartwigsen, C; Goedecker, S; Hutter, J. 
 PHYSICAL REVIEW B, 58 (7), 3641-3662 (1998). 
 Relativistic separable dual-space Gaussian pseudopotentials from H to Rn.
 https://doi.org/10.1103/PhysRevB.58.3641

 Goedecker, S; Teter, M; Hutter, J. 
 PHYSICAL REVIEW B, 54 (3), 1703-1710 (1996). 
 Separable dual-space Gaussian pseudopotentials.
 https://doi.org/10.1103/PhysRevB.54.1703


 -------------------------------------------------------------------------------
 -                                                                             -
 -                                T I M I N G                                  -
 -                                                                             -
 -------------------------------------------------------------------------------
 SUBROUTINE                       CALLS  ASD         SELF TIME        TOTAL TIME
                                MAXIMUM       AVERAGE  MAXIMUM  AVERAGE  MAXIMUM
 CP2K                                 1  1.0     0.49     0.53 59093.27 59093.27
 qs_energies                          1  2.0     0.00     0.02 59080.37 59080.37
 scf_env_do_scf                       1  3.0     0.00     0.00 58968.44 58968.45
 scf_env_do_scf_inner_loop          127  4.0     0.05     0.12 57720.44 57720.55
 qs_ks_update_qs_env                129  5.0     0.00     0.00 56674.06 56674.20
 rebuild_ks_matrix                  127  6.0     0.00     0.00 56671.31 56671.43
 qs_ks_build_kohn_sham_matrix       127  7.0     0.13     0.19 56671.31 56671.43
 hfx_ks_matrix                      127  8.0     0.01     0.03 52353.32 52353.51
 integrate_four_center              127  9.0     1.10     1.77 52352.99 52353.18
 integrate_four_center_main         127 10.0     0.10     0.13 48622.17 51466.06
 integrate_four_center_bin         8128 11.0 48622.07 51465.96 48622.07 51465.96
 mp_sync                           2119 10.7  3627.95  4854.46  3627.95  4854.46
 qs_vxc_create                      254  8.0     0.02     0.04  1827.68  1827.84
 xc_rho_set_and_dset_create         254 10.0    10.46    11.18  1386.70  1484.67
 mp_sum_dm                       130252  8.5  1342.44  1359.29  1342.44  1359.29
 pw_transfer                       7480 10.5     1.06     1.21  1284.07  1334.94
 fft_wrap_pw1pw2                   7098 11.6     0.14     0.18  1277.27  1327.97
 qs_rho_update_rho_low              128  5.0     0.03     0.05  1271.94  1272.12
 fft_wrap_pw1pw2_300               4026 13.1    70.80    75.96  1202.43  1256.34
 init_scf_loop                        2  4.0     0.01     0.01  1247.95  1248.03
 -------------------------------------------------------------------------------

 The number of warnings for this run is : 4
 
 -------------------------------------------------------------------------------
  **** **** ******  **  PROGRAM ENDED AT                 2025-10-02 15:19:01.565
 ***** ** ***  *** **   PROGRAM RAN ON                                sebnode132
 **    ****   ******    PROGRAM RAN BY                                    luehrs
 ***** **    ** ** **   PROGRAM PROCESS ID                                787672
  **** **  *******  **  PROGRAM STOPPED IN /home/luehrs/PhD/Sodium_batteries/Sod
                                           ium-graphene-functional_groups/XPS_Fu
                                           nctional_groups/Alcohol_surface
