      55
 i =       40, E =      -291.8453801858
  C         0.0317900000        7.4173000000        0.0052700000
  C        -0.6626600000        6.2421000000       -0.0245600000
  C        -0.0582100000        4.9643800000       -0.0379300000
  C        -0.6082300000        3.7119200000       -0.0582100000
  C        -0.0727700000        2.4500300000       -0.0361100000
  C        -0.6889400000        1.1811900000       -0.0393500000
  C         0.0000000000        0.0000000000        0.0000000000
  C         1.4062300000        0.0092500000        0.0350500000
  C         1.4295800000        2.4551000000       -0.0033600000
  C         2.1394300000        3.6969900000       -0.0025500000
  C         1.4447600000        4.9443700000       -0.0184300000
  C         2.1556600000        6.1874200000       -0.0044500000
  C         1.4411000000        7.3969100000        0.0090600000
  C         2.1328400000        1.2116800000        0.0331200000
  C         4.3128000000        0.0234100000        0.1006500000
  C         3.6025000000        1.2096600000        0.0587100000
  C         4.3202100000        2.4639700000        0.0365200000
  C         3.6013500000        3.6831500000        0.0152100000
  C         4.3245200000        4.9343500000        0.0107800000
  C         3.6161500000        6.1681300000        0.0038000000
  C         4.3589900000        7.3752400000        0.0123000000
  C         5.7336500000        7.3822900000        0.0175400000
  C         6.4762500000        6.1754100000        0.0122900000
  C         5.7677200000        4.9338200000        0.0157700000
  C         6.4958300000        3.6884900000        0.0254600000
  C         5.7741500000        2.4392000000        0.0422900000
  C         6.4927300000        1.2049500000        0.0596200000
  C         5.7360000000       -0.0803000000        0.0881700000
  C         8.6818600000        0.0005000000        0.0359700000
  C         7.9400600000        1.2144300000        0.0437300000
  C         8.6468400000        2.4603900000        0.0233700000
  C         7.9394700000        3.7024100000        0.0220400000
  C         8.6396500000        4.9589900000        0.0169000000
  C         7.9293100000        6.1924100000        0.0150600000
  C         8.6502400000        7.4127800000        0.0251000000
  C        10.0495900000        7.4247300000        0.0302400000
  C        10.7545700000        6.2420900000        0.0223500000
  C        10.1299600000        4.9744100000        0.0185500000
  C        10.6982400000        3.7192000000        0.0126800000
  C        10.1479100000        2.4603700000        0.0060600000
  C        10.7585800000        1.1916800000       -0.0090800000
  C        10.0828000000        0.0000000000        0.0000000000
  H         6.2603300000       -1.2410500000        0.0916900000
  H        10.6179600000       -0.9480000000       -0.0160700000
  H         8.1192600000       -0.9275100000        0.0571900000
  H         3.8146900000       -0.9372000000        0.1300500000
  H         1.9258900000       -0.9419100000        0.0634900000
  H        -0.5281900000       -0.9524100000        0.0010600000
  H        10.5702600000        8.3814500000        0.0398500000
  H         8.1309100000        8.3661800000        0.0328900000
  H         6.2375900000        8.3415300000        0.0274200000
  H         3.8496900000        8.3301900000        0.0143400000
  H         1.9651400000        8.3454200000        0.0232700000
  H        -0.4891300000        8.3736500000        0.0192100000
 Na         2.0455734630        7.4527577146        2.4540630535
