 DBCSR| Multiplication driver                                               XSMM
 DBCSR| Multrec recursion limit                                              512
 DBCSR| Multiplication stack size                                           1000
 DBCSR| Maximum elements for images                                    UNLIMITED
 DBCSR| Multiplicative factor virtual images                                   1
 DBCSR| Multiplication size stacks                                             3
 DBCSR| Number of 3D layers                                               SINGLE
 DBCSR| Use MPI memory allocation                                              T
 DBCSR| Use RMA algorithm                                                      F
 DBCSR| Use Communication thread                                               T
 DBCSR| Communication thread load                                             87


  **** **** ******  **  PROGRAM STARTED AT               2024-07-17 14:30:50.504
 ***** ** ***  *** **   PROGRAM STARTED ON                            sebnode131
 **    ****   ******    PROGRAM STARTED BY                                luehrs
 ***** **    ** ** **   PROGRAM PROCESS ID                                305437
  **** **  *******  **  PROGRAM STARTED IN /home/luehrs/PhD/Sodium_batteries/Sod
                                           ium-graphene-edge/Armchair_2/Hydrogen

 CP2K| version string:                    CP2K version 7.0 (Development Version)
 CP2K| source code revision number:                                             
 CP2K| cp2kflags: libint fftw3 libxc parallel mpi3 scalapack xsmm libderiv_max_a
 CP2K|            m1=8 libint_max_am=9 max_contr=4
 CP2K| is freely available from                            https://www.cp2k.org/
 CP2K| Program compiled at                         Sun Jun 24 14:37:16 CEST 2018
 CP2K| Program compiled on                                            sebstorage
 CP2K| Program compiled for                                Linux-x86-64-gfortran
 CP2K| Data directory path    /home/brehm/Software_Batchnode/2018/Source/cp2k_18
 CP2K| Input file name                                        input.armchair.inp

 GLOBAL| Force Environment number                                              1
 GLOBAL| Basis set file name                                      ./BASIS_MOLOPT
 GLOBAL| Potential file name                                    ./GTH_POTENTIALS
 GLOBAL| MM Potential file name                                     MM_POTENTIAL
 GLOBAL| Coordinate file name           ./graphene_armchair_hydrogen_relaxed.xyz
 GLOBAL| Method name                                                        CP2K
 GLOBAL| Project name                     graphene_armchair_hydrogen_sodium_BSSE
 GLOBAL| Preferred FFT library                                             FFTW3
 GLOBAL| Preferred diagonalization lib.                                       SL
 GLOBAL| Run type                                                           BSSE
 GLOBAL| All-to-all communication in single precision                          F
 GLOBAL| FFTs using library dependent lengths                                  F
 GLOBAL| Global print level                                               MEDIUM
 GLOBAL| Total number of message passing processes                            16
 GLOBAL| Number of threads for this process                                    1
 GLOBAL| This output is from process                                           0
 GLOBAL| CPU model name :  AMD EPYC 7513 32-Core Processor

 MEMORY| system memory details [Kb]
 MEMORY|                        rank 0           min           max       average
 MEMORY| MemTotal            131901556     131901556     131901556     131901556
 MEMORY| MemFree             121555312     121555312     121555312     121555312
 MEMORY| Buffers                169660        169660        169660        169660
 MEMORY| Cached                4829880       4829880       4829880       4829880
 MEMORY| Slab                  1221336       1221336       1221336       1221336
 MEMORY| SReclaimable           397152        397152        397152        397152
 MEMORY| MemLikelyFree       126952004     126952004     126952004     126952004


 *** Fundamental physical constants (SI units) ***

 *** Literature: B. J. Mohr and B. N. Taylor,
 ***             CODATA recommended values of the fundamental physical
 ***             constants: 2006, Web Version 5.1
 ***             http://physics.nist.gov/constants

 Speed of light in vacuum [m/s]                             2.99792458000000E+08
 Magnetic constant or permeability of vacuum [N/A**2]       1.25663706143592E-06
 Electric constant or permittivity of vacuum [F/m]          8.85418781762039E-12
 Planck constant (h) [J*s]                                  6.62606896000000E-34
 Planck constant (h-bar) [J*s]                              1.05457162825177E-34
 Elementary charge [C]                                      1.60217648700000E-19
 Electron mass [kg]                                         9.10938215000000E-31
 Electron g factor [ ]                                     -2.00231930436220E+00
 Proton mass [kg]                                           1.67262163700000E-27
 Fine-structure constant                                    7.29735253760000E-03
 Rydberg constant [1/m]                                     1.09737315685270E+07
 Avogadro constant [1/mol]                                  6.02214179000000E+23
 Boltzmann constant [J/K]                                   1.38065040000000E-23
 Atomic mass unit [kg]                                      1.66053878200000E-27
 Bohr radius [m]                                            5.29177208590000E-11

 *** Conversion factors ***

 [u] -> [a.u.]                                              1.82288848426455E+03
 [Angstrom] -> [Bohr] = [a.u.]                              1.88972613288564E+00
 [a.u.] = [Bohr] -> [Angstrom]                              5.29177208590000E-01
 [a.u.] -> [s]                                              2.41888432650478E-17
 [a.u.] -> [fs]                                             2.41888432650478E-02
 [a.u.] -> [J]                                              4.35974393937059E-18
 [a.u.] -> [N]                                              8.23872205491840E-08
 [a.u.] -> [K]                                              3.15774647902944E+05
 [a.u.] -> [kJ/mol]                                         2.62549961709828E+03
 [a.u.] -> [kcal/mol]                                       6.27509468713739E+02
 [a.u.] -> [Pa]                                             2.94210107994716E+13
 [a.u.] -> [bar]                                            2.94210107994716E+08
 [a.u.] -> [atm]                                            2.90362800883016E+08
 [a.u.] -> [eV]                                             2.72113838565563E+01
 [a.u.] -> [Hz]                                             6.57968392072181E+15
 [a.u.] -> [1/cm] (wave numbers)                            2.19474631370540E+05
 [a.u./Bohr**2] -> [1/cm]                                   5.14048714338585E+03
 

 CELL_TOP| Volume [angstrom^3]:                                        15412.800
 CELL_TOP| Vector a [angstrom    12.844     0.000     0.000    |a| =      12.844
 CELL_TOP| Vector b [angstrom     0.000    30.000     0.000    |b| =      30.000
 CELL_TOP| Vector c [angstrom     0.000     0.000    40.000    |c| =      40.000
 CELL_TOP| Angle (b,c), alpha [degree]:                                   90.000
 CELL_TOP| Angle (a,c), beta  [degree]:                                   90.000
 CELL_TOP| Angle (a,b), gamma [degree]:                                   90.000
 CELL_TOP| Requested initial symmetry:                                 TRICLINIC
 CELL_TOP| Numerically orthorhombic:                                         YES

 GENERATE|  Preliminary Number of Bonds generated:                             0
 GENERATE|  Achieved consistency in connectivity generation.

 CELL| Volume [angstrom^3]:                                            15412.800
 CELL| Vector a [angstrom]:      12.844     0.000     0.000    |a| =      12.844
 CELL| Vector b [angstrom]:       0.000    30.000     0.000    |b| =      30.000
 CELL| Vector c [angstrom]:       0.000     0.000    40.000    |c| =      40.000
 CELL| Angle (b,c), alpha [degree]:                                       90.000
 CELL| Angle (a,c), beta  [degree]:                                       90.000
 CELL| Angle (a,b), gamma [degree]:                                       90.000
 CELL| Requested initial symmetry:                                     TRICLINIC
 CELL| Numerically orthorhombic:                                             YES

 CELL_REF| Volume [angstrom^3]:                                        15412.800
 CELL_REF| Vector a [angstrom    12.844     0.000     0.000    |a| =      12.844
 CELL_REF| Vector b [angstrom     0.000    30.000     0.000    |b| =      30.000
 CELL_REF| Vector c [angstrom     0.000     0.000    40.000    |c| =      40.000
 CELL_REF| Angle (b,c), alpha [degree]:                                   90.000
 CELL_REF| Angle (a,c), beta  [degree]:                                   90.000
 CELL_REF| Angle (a,b), gamma [degree]:                                   90.000
 CELL_REF| Requested initial symmetry:                                 TRICLINIC
 CELL_REF| Numerically orthorhombic:                                         YES

 *******************************************************************************
 *******************************************************************************
 **                                                                           **
 **     #####                         ##              ##                      **
 **    ##   ##            ##          ##              ##                      **
 **   ##     ##                       ##            ######                    **
 **   ##     ##  ##   ##  ##   #####  ##  ##   ####   ##    #####    #####    **
 **   ##     ##  ##   ##  ##  ##      ## ##   ##      ##   ##   ##  ##   ##   **
 **   ##  ## ##  ##   ##  ##  ##      ####     ###    ##   ######   ######    **
 **    ##  ###   ##   ##  ##  ##      ## ##      ##   ##   ##       ##        **
 **     #######   #####   ##   #####  ##  ##  ####    ##    #####   ##        **
 **           ##                                                    ##        **
 **                                                                           **
 **                                                ... make the atoms dance   **
 **                                                                           **
 **            Copyright (C) by CP2K developers group (2000 - 2018)           **
 **                                                                           **
 *******************************************************************************

 DFT| Spin unrestricted (spin-polarized) Kohn-Sham calculation               UKS
 DFT| Multiplicity                                                             1
 DFT| Number of spin states                                                    2
 DFT| Charge                                                                   1
 DFT| Self-interaction correction (SIC)                                       NO
 DFT| Cutoffs: density                                              1.000000E-10
 DFT|          gradient                                             1.000000E-10
 DFT|          tau                                                  1.000000E-10
 DFT|          cutoff_smoothing_range                               0.000000E+00
 DFT| XC density smoothing                                                  NONE
 DFT| XC derivatives                                              SPLINE2_SMOOTH
 FUNCTIONAL| ROUTINE=NEW
 FUNCTIONAL| BECKE88:
 FUNCTIONAL| A. Becke, Phys. Rev. A 38, 3098 (1988) {LSD version}               
 FUNCTIONAL| LYP:
 FUNCTIONAL| C. Lee, W. Yang, R.G. Parr, Phys. Rev. B, 37, 785 (1988) {LSD versi
 FUNCTIONAL| on}                                                                
 vdW POTENTIAL|                                                   Pair Potential
 vdW POTENTIAL|          DFT-D3 (Version 3.1)
 vdW POTENTIAL|          Potential Form: S. Grimme et al, JCP 132: 154104 (2010)
 vdW POTENTIAL|          Zero Damping
 vdW POTENTIAL|          Cutoff Radius [Bohr]:                             20.00
 vdW POTENTIAL|          s6 Scaling Factor:                               1.0000
 vdW POTENTIAL|          sr6 Scaling Factor:                              1.0940
 vdW POTENTIAL|          s8 Scaling Factor:                               1.6820
 vdW POTENTIAL|          Cutoff for CN calculation:                   0.1000E-05

 QS| Method:                                                                 GPW
 QS| Density plane wave grid type                        NON-SPHERICAL FULLSPACE
 QS| Number of grid levels:                                                    4
 QS| Density cutoff [a.u.]:                                                150.0
 QS| Multi grid cutoff [a.u.]: 1) grid level                               150.0
 QS|                           2) grid level                                50.0
 QS|                           3) grid level                                16.7
 QS|                           4) grid level                                 5.6
 QS| Grid level progression factor:                                          3.0
 QS| Relative density cutoff [a.u.]:                                        20.0
 QS| Consistent realspace mapping and integration 
 QS| Interaction thresholds: eps_pgf_orb:                                1.0E-06
 QS|                         eps_filter_matrix:                          0.0E+00
 QS|                         eps_core_charge:                            1.0E-14
 QS|                         eps_rho_gspace:                             1.0E-12
 QS|                         eps_rho_rspace:                             1.0E-12
 QS|                         eps_gvg_rspace:                             1.0E-06
 QS|                         eps_ppl:                                    1.0E-02
 QS|                         eps_ppnl:                                   1.0E-08


 ATOMIC KIND INFORMATION

  1. Atomic kind: C                                     Number of atoms:      42

     Orbital Basis Set                                        DZVP-MOLOPT-SR-GTH

       Number of orbital shell sets:                                           1
       Number of orbital shells:                                               5
       Number of primitive Cartesian functions:                                5
       Number of Cartesian basis functions:                                   14
       Number of spherical basis functions:                                   13
       Norm type:                                                              2

       Normalised Cartesian orbitals:

                        Set   Shell   Orbital            Exponent    Coefficient

                          1       1    2s                5.605331       0.322515
                                                         2.113016       0.213043
                                                         0.769911      -0.209686
                                                         0.348157      -0.219794
                                                         0.128212      -0.022789

                          1       2    3s                5.605331       0.552234
                                                         2.113016       0.082072
                                                         0.769911       0.007843
                                                         0.348157       0.136893
                                                         0.128212       0.074283

                          1       3    3px               5.605331      -0.703879
                                                         2.113016      -0.642521
                                                         0.769911      -0.374851
                                                         0.348157      -0.139743
                                                         0.128212      -0.027849
                          1       3    3py               5.605331      -0.703879
                                                         2.113016      -0.642521
                                                         0.769911      -0.374851
                                                         0.348157      -0.139743
                                                         0.128212      -0.027849
                          1       3    3pz               5.605331      -0.703879
                                                         2.113016      -0.642521
                                                         0.769911      -0.374851
                                                         0.348157      -0.139743
                                                         0.128212      -0.027849

                          1       4    4px               5.605331      -0.480376
                                                         2.113016      -0.552894
                                                         0.769911      -0.316145
                                                         0.348157       0.210505
                                                         0.128212       0.076095
                          1       4    4py               5.605331      -0.480376
                                                         2.113016      -0.552894
                                                         0.769911      -0.316145
                                                         0.348157       0.210505
                                                         0.128212       0.076095
                          1       4    4pz               5.605331      -0.480376
                                                         2.113016      -0.552894
                                                         0.769911      -0.316145
                                                         0.348157       0.210505
                                                         0.128212       0.076095

                          1       5    4dx2              5.605331       0.640026
                                                         2.113016       0.274300
                                                         0.769911       0.446711
                                                         0.348157       0.028674
                                                         0.128212       0.029790
                          1       5    4dxy              5.605331       1.108557
                                                         2.113016       0.475102
                                                         0.769911       0.773726
                                                         0.348157       0.049666
                                                         0.128212       0.051599
                          1       5    4dxz              5.605331       1.108557
                                                         2.113016       0.475102
                                                         0.769911       0.773726
                                                         0.348157       0.049666
                                                         0.128212       0.051599
                          1       5    4dy2              5.605331       0.640026
                                                         2.113016       0.274300
                                                         0.769911       0.446711
                                                         0.348157       0.028674
                                                         0.128212       0.029790
                          1       5    4dyz              5.605331       1.108557
                                                         2.113016       0.475102
                                                         0.769911       0.773726
                                                         0.348157       0.049666
                                                         0.128212       0.051599
                          1       5    4dz2              5.605331       0.640026
                                                         2.113016       0.274300
                                                         0.769911       0.446711
                                                         0.348157       0.028674
                                                         0.128212       0.029790

     GTH Potential information for                                    GTH-PBE-q4

       Description:                       Goedecker-Teter-Hutter pseudopotential
                                           Goedecker et al., PRB 54, 1703 (1996)
                                          Hartwigsen et al., PRB 58, 3641 (1998)
                                                      Krack, TCA 114, 145 (2005)

       Gaussian exponent of the core charge distribution:               4.364419
       Electronic configuration (s p d ...):                               2   2

       Parameters of the local part of the GTH pseudopotential:

                          rloc        C1          C2          C3          C4
                        0.338471   -8.803674    1.339211

       Parameters of the non-local part of the GTH pseudopotential:

                   l      r(l)      h(i,j,l)

                   0    0.302576    9.622487
                   1    0.291507

  2. Atomic kind: H                                     Number of atoms:      12

     Orbital Basis Set                                        DZVP-MOLOPT-SR-GTH

       Number of orbital shell sets:                                           1
       Number of orbital shells:                                               3
       Number of primitive Cartesian functions:                                5
       Number of Cartesian basis functions:                                    5
       Number of spherical basis functions:                                    5
       Norm type:                                                              2

       Normalised Cartesian orbitals:

                        Set   Shell   Orbital            Exponent    Coefficient

                          1       1    2s               10.068468      -0.133023
                                                         2.680223      -0.177618
                                                         0.791502      -0.258419
                                                         0.239116      -0.107525
                                                         0.082193      -0.014019

                          1       2    3s               10.068468       0.344673
                                                         2.680223       1.819821
                                                         0.791502      -0.999069
                                                         0.239116       0.017430
                                                         0.082193       0.082660

                          1       3    3px              10.068468       0.155326
                                                         2.680223       0.367157
                                                         0.791502       0.311480
                                                         0.239116       0.080105
                                                         0.082193       0.033440
                          1       3    3py              10.068468       0.155326
                                                         2.680223       0.367157
                                                         0.791502       0.311480
                                                         0.239116       0.080105
                                                         0.082193       0.033440
                          1       3    3pz              10.068468       0.155326
                                                         2.680223       0.367157
                                                         0.791502       0.311480
                                                         0.239116       0.080105
                                                         0.082193       0.033440

     GTH Potential information for                                    GTH-PBE-q1

       Description:                       Goedecker-Teter-Hutter pseudopotential
                                           Goedecker et al., PRB 54, 1703 (1996)
                                          Hartwigsen et al., PRB 58, 3641 (1998)
                                                      Krack, TCA 114, 145 (2005)

       Gaussian exponent of the core charge distribution:              12.500000
       Electronic configuration (s p d ...):                                   1

       Parameters of the local part of the GTH pseudopotential:

                          rloc        C1          C2          C3          C4
                        0.200000   -4.178900    0.724463

  3. Atomic kind: Na                                    Number of atoms:       1

     Orbital Basis Set                                        DZVP-MOLOPT-SR-GTH

       Number of orbital shell sets:                                           1
       Number of orbital shells:                                               5
       Number of primitive Cartesian functions:                                7
       Number of Cartesian basis functions:                                    9
       Number of spherical basis functions:                                    9
       Norm type:                                                              2

       Normalised Cartesian orbitals:

                        Set   Shell   Orbital            Exponent    Coefficient

                          1       1    2s               23.518801       0.288931
                                                        11.135656       0.787174
                                                         4.647814      -0.190850
                                                         1.866708      -0.573823
                                                         0.734684      -0.276866
                                                         0.275673      -0.024211
                                                         0.049895      -0.000019

                          1       2    3s               23.518801       0.039212
                                                        11.135656       0.138585
                                                         4.647814      -0.048916
                                                         1.866708      -0.102378
                                                         0.734684      -0.139633
                                                         0.275673       0.012767
                                                         0.049895       0.077569

                          1       3    4s               23.518801       0.303698
                                                        11.135656      -0.548845
                                                         4.647814       0.534441
                                                         1.866708      -0.220920
                                                         0.734684       0.980584
                                                         0.275673      -0.653367
                                                         0.049895       0.063703

                          1       4    3px              23.518801      -2.919466
                                                        11.135656      -2.855941
                                                         4.647814      -2.579491
                                                         1.866708      -1.208264
                                                         0.734684      -0.321406
                                                         0.275673      -0.035032
                                                         0.049895      -0.000067
                          1       4    3py              23.518801      -2.919466
                                                        11.135656      -2.855941
                                                         4.647814      -2.579491
                                                         1.866708      -1.208264
                                                         0.734684      -0.321406
                                                         0.275673      -0.035032
                                                         0.049895      -0.000067
                          1       4    3pz              23.518801      -2.919466
                                                        11.135656      -2.855941
                                                         4.647814      -2.579491
                                                         1.866708      -1.208264
                                                         0.734684      -0.321406
                                                         0.275673      -0.035032
                                                         0.049895      -0.000067

                          1       5    4px              23.518801      -0.381914
                                                        11.135656      -0.488169
                                                         4.647814      -0.407378
                                                         1.866708      -0.201739
                                                         0.734684      -0.078845
                                                         0.275673       0.043427
                                                         0.049895       0.031563
                          1       5    4py              23.518801      -0.381914
                                                        11.135656      -0.488169
                                                         4.647814      -0.407378
                                                         1.866708      -0.201739
                                                         0.734684      -0.078845
                                                         0.275673       0.043427
                                                         0.049895       0.031563
                          1       5    4pz              23.518801      -0.381914
                                                        11.135656      -0.488169
                                                         4.647814      -0.407378
                                                         1.866708      -0.201739
                                                         0.734684      -0.078845
                                                         0.275673       0.043427
                                                         0.049895       0.031563

     GTH Potential information for                                    GTH-PBE-q9

       Description:                       Goedecker-Teter-Hutter pseudopotential
                                           Goedecker et al., PRB 54, 1703 (1996)
                                          Hartwigsen et al., PRB 58, 3641 (1998)
                                                      Krack, TCA 114, 145 (2005)

       Gaussian exponent of the core charge distribution:               8.937631
       Electronic configuration (s p d ...):                               3   6

       Parameters of the local part of the GTH pseudopotential:

                          rloc        C1          C2          C3          C4
                        0.236523    0.295105   -0.913885

       Parameters of the non-local part of the GTH pseudopotential:

                   l      r(l)      h(i,j,l)

                   0    0.143560   34.601492
                   1    0.129932  -14.277462


 MOLECULE KIND INFORMATION


 All atoms are their own molecule, skipping detailed information


 TOTAL NUMBERS AND MAXIMUM NUMBERS

  Total number of            - Atomic kinds:                                   3
                             - Atoms:                                         55
                             - Shell sets:                                    55
                             - Shells:                                       251
                             - Primitive Cartesian functions:                277
                             - Cartesian basis functions:                    657
                             - Spherical basis functions:                    615

  Maximum angular momentum of- Orbital basis functions:                        2
                             - Local part of the GTH pseudopotential:          2
                             - Non-local part of the GTH pseudopotential:      1


 MODULE QUICKSTEP:  ATOMIC COORDINATES IN angstrom

  Atom  Kind  Element       X           Y           Z          Z(eff)       Mass

       1     1 C    6    0.031790    7.417300    0.005270      4.00      12.0107
       2     1 C    6   -0.662660    6.242100   -0.024560      4.00      12.0107
       3     1 C    6   -0.058210    4.964380   -0.037930      4.00      12.0107
       4     1 C    6   -0.608230    3.711920   -0.058210      4.00      12.0107
       5     1 C    6   -0.072770    2.450030   -0.036110      4.00      12.0107
       6     1 C    6   -0.688940    1.181190   -0.039350      4.00      12.0107
       7     1 C    6    0.000000    0.000000    0.000000      4.00      12.0107
       8     1 C    6    1.406230    0.009250    0.035050      4.00      12.0107
       9     1 C    6    1.429580    2.455100   -0.003360      4.00      12.0107
      10     1 C    6    2.139430    3.696990   -0.002550      4.00      12.0107
      11     1 C    6    1.444760    4.944370   -0.018430      4.00      12.0107
      12     1 C    6    2.155660    6.187420   -0.004450      4.00      12.0107
      13     1 C    6    1.441100    7.396910    0.009060      4.00      12.0107
      14     1 C    6    2.132840    1.211680    0.033120      4.00      12.0107
      15     1 C    6    4.312800    0.023410    0.100650      4.00      12.0107
      16     1 C    6    3.602500    1.209660    0.058710      4.00      12.0107
      17     1 C    6    4.320210    2.463970    0.036520      4.00      12.0107
      18     1 C    6    3.601350    3.683150    0.015210      4.00      12.0107
      19     1 C    6    4.324520    4.934350    0.010780      4.00      12.0107
      20     1 C    6    3.616150    6.168130    0.003800      4.00      12.0107
      21     1 C    6    4.358990    7.375240    0.012300      4.00      12.0107
      22     1 C    6    5.733650    7.382290    0.017540      4.00      12.0107
      23     1 C    6    6.476250    6.175410    0.012290      4.00      12.0107
      24     1 C    6    5.767720    4.933820    0.015770      4.00      12.0107
      25     1 C    6    6.495830    3.688490    0.025460      4.00      12.0107
      26     1 C    6    5.774150    2.439200    0.042290      4.00      12.0107
      27     1 C    6    6.492730    1.204950    0.059620      4.00      12.0107
      28     1 C    6    5.736000   -0.080300    0.088170      4.00      12.0107
      29     1 C    6    8.681860    0.000500    0.035970      4.00      12.0107
      30     1 C    6    7.940060    1.214430    0.043730      4.00      12.0107
      31     1 C    6    8.646840    2.460390    0.023370      4.00      12.0107
      32     1 C    6    7.939470    3.702410    0.022040      4.00      12.0107
      33     1 C    6    8.639650    4.958990    0.016900      4.00      12.0107
      34     1 C    6    7.929310    6.192410    0.015060      4.00      12.0107
      35     1 C    6    8.650240    7.412780    0.025100      4.00      12.0107
      36     1 C    6   10.049590    7.424730    0.030240      4.00      12.0107
      37     1 C    6   10.754570    6.242090    0.022350      4.00      12.0107
      38     1 C    6   10.129960    4.974410    0.018550      4.00      12.0107
      39     1 C    6   10.698240    3.719200    0.012680      4.00      12.0107
      40     1 C    6   10.147910    2.460370    0.006060      4.00      12.0107
      41     1 C    6   10.758580    1.191680   -0.009080      4.00      12.0107
      42     1 C    6   10.082800    0.000000    0.000000      4.00      12.0107
      43     2 H    1    6.260330   -1.241050    0.091690      1.00       1.0079
      44     2 H    1   10.617960   -0.948000   -0.016070      1.00       1.0079
      45     2 H    1    8.119260   -0.927510    0.057190      1.00       1.0079
      46     2 H    1    3.814690   -0.937200    0.130050      1.00       1.0079
      47     2 H    1    1.925890   -0.941910    0.063490      1.00       1.0079
      48     2 H    1   -0.528190   -0.952410    0.001060      1.00       1.0079
      49     2 H    1   10.570260    8.381450    0.039850      1.00       1.0079
      50     2 H    1    8.130910    8.366180    0.032890      1.00       1.0079
      51     2 H    1    6.237590    8.341530    0.027420      1.00       1.0079
      52     2 H    1    3.849690    8.330190    0.014340      1.00       1.0079
      53     2 H    1    1.965140    8.345420    0.023270      1.00       1.0079
      54     2 H    1   -0.489130    8.373650    0.019210      1.00       1.0079
      55     3 Na  11    2.045573    7.452758    2.454063      9.00      22.9898




 SCF PARAMETERS         Density guess:                                    ATOMIC
                        --------------------------------------------------------
                        max_scf:                                              50
                        max_scf_history:                                       0
                        max_diis:                                              4
                        --------------------------------------------------------
                        eps_scf:                                        3.00E-07
                        eps_scf_history:                                0.00E+00
                        eps_diis:                                       1.00E-01
                        eps_eigval:                                     1.00E-05
                        --------------------------------------------------------
                        level_shift [a.u.]:                                 0.00
                        added MOs                                       100  100
                        --------------------------------------------------------
                        Mixing method:                            BROYDEN_MIXING
                                                charge density mixing in g-space
                        --------------------------------------------------------
                        Smear method:                                FERMI_DIRAC
                        Electronic temperature [K]:                        300.0
                        Electronic temperature [a.u.]:                  9.50E-04
                        Accuracy threshold:                             1.00E-10
                        --------------------------------------------------------
                        Outer loop SCF in use 
                        No variables optimised in outer loop
                        eps_scf                                         1.00E-06
                        max_scf                                               30
                        DIIS optimization
                        DIIS buffer length                                     3
                        step_size                                       5.00E-01

 PW_GRID| Information for grid number                                          1
 PW_GRID| Grid distributed over                                    16 processors
 PW_GRID| Real space group dimensions                                    16    1
 PW_GRID| the grid is blocked:                                                NO
 PW_GRID| Cutoff [a.u.]                                                    150.0
 PW_GRID| spherical cutoff:                                                   NO
 PW_GRID|   Bounds   1            -67      67                Points:         135
 PW_GRID|   Bounds   2           -160     159                Points:         320
 PW_GRID|   Bounds   3           -216     215                Points:         432
 PW_GRID| Volume element (a.u.^3)  0.5573E-02     Volume (a.u.^3)    104010.7313
 PW_GRID| Grid span                                                    FULLSPACE
 PW_GRID|   Distribution                         Average         Max         Min
 PW_GRID|   G-Vectors                          1166400.0     1166400     1166400
 PW_GRID|   G-Rays                                8640.0        8640        8640
 PW_GRID|   Real Space Points                  1166400.0     1244160     1105920

 PW_GRID| Information for grid number                                          2
 PW_GRID| Grid distributed over                                    16 processors
 PW_GRID| Real space group dimensions                                    16    1
 PW_GRID| the grid is blocked:                                                NO
 PW_GRID| Cutoff [a.u.]                                                     50.0
 PW_GRID| spherical cutoff:                                                   NO
 PW_GRID|   Bounds   1            -40      39                Points:          80
 PW_GRID|   Bounds   2            -96      95                Points:         192
 PW_GRID|   Bounds   3           -121     121                Points:         243
 PW_GRID| Volume element (a.u.^3)  0.2787E-01     Volume (a.u.^3)    104010.7313
 PW_GRID| Grid span                                                    FULLSPACE
 PW_GRID|   Distribution                         Average         Max         Min
 PW_GRID|   G-Vectors                           233280.0      233360      233200
 PW_GRID|   G-Rays                                2916.0        2917        2915
 PW_GRID|   Real Space Points                   233280.0      233280      233280

 PW_GRID| Information for grid number                                          3
 PW_GRID| Grid distributed over                                    16 processors
 PW_GRID| Real space group dimensions                                    16    1
 PW_GRID| the grid is blocked:                                                NO
 PW_GRID| Cutoff [a.u.]                                                     16.7
 PW_GRID| spherical cutoff:                                                   NO
 PW_GRID|   Bounds   1            -22      22                Points:          45
 PW_GRID|   Bounds   2            -54      53                Points:         108
 PW_GRID|   Bounds   3            -72      71                Points:         144
 PW_GRID| Volume element (a.u.^3)  0.1486         Volume (a.u.^3)    104010.7313
 PW_GRID| Grid span                                                    FULLSPACE
 PW_GRID|   Distribution                         Average         Max         Min
 PW_GRID|   G-Vectors                            43740.0       43875       43605
 PW_GRID|   G-Rays                                 972.0         975         969
 PW_GRID|   Real Space Points                    43740.0       46656       31104

 PW_GRID| Information for grid number                                          4
 PW_GRID| Grid distributed over                                    16 processors
 PW_GRID| Real space group dimensions                                    16    1
 PW_GRID| the grid is blocked:                                                NO
 PW_GRID| Cutoff [a.u.]                                                      5.6
 PW_GRID| spherical cutoff:                                                   NO
 PW_GRID|   Bounds   1            -12      12                Points:          25
 PW_GRID|   Bounds   2            -32      31                Points:          64
 PW_GRID|   Bounds   3            -40      40                Points:          81
 PW_GRID| Volume element (a.u.^3)  0.8026         Volume (a.u.^3)    104010.7313
 PW_GRID| Grid span                                                    FULLSPACE
 PW_GRID|   Distribution                         Average         Max         Min
 PW_GRID|   G-Vectors                             8100.0        8125        8075
 PW_GRID|   G-Rays                                 324.0         325         323
 PW_GRID|   Real Space Points                     8100.0       10368        5184

 POISSON| Solver                                                        PERIODIC
 POISSON| Periodicity                                                        XYZ

 RS_GRID| Information for grid number                                          1
 RS_GRID|   Bounds   1            -67      67                Points:         135
 RS_GRID|   Bounds   2           -160     159                Points:         320
 RS_GRID|   Bounds   3           -216     215                Points:         432
 RS_GRID| Real space distribution over                                  4 groups
 RS_GRID| Real space distribution along direction                              2
 RS_GRID| Border size                                                         22
 RS_GRID| Real space distribution over                                  4 groups
 RS_GRID| Real space distribution along direction                              3
 RS_GRID| Border size                                                         22
 RS_GRID|   Distribution                         Average         Max         Min
 RS_GRID|   Planes                                 124.0         124         124
 RS_GRID|   Distribution                         Average         Max         Min
 RS_GRID|   Planes                                 152.0         152         152

 RS_GRID| Information for grid number                                          2
 RS_GRID|   Bounds   1            -40      39                Points:          80
 RS_GRID|   Bounds   2            -96      95                Points:         192
 RS_GRID|   Bounds   3           -121     121                Points:         243
 RS_GRID| Real space distribution over                                  4 groups
 RS_GRID| Real space distribution along direction                              2
 RS_GRID| Border size                                                         24
 RS_GRID| Real space distribution over                                  4 groups
 RS_GRID| Real space distribution along direction                              3
 RS_GRID| Border size                                                         24
 RS_GRID|   Distribution                         Average         Max         Min
 RS_GRID|   Planes                                  96.0          96          96
 RS_GRID|   Distribution                         Average         Max         Min
 RS_GRID|   Planes                                 108.8         109         108

 RS_GRID| Information for grid number                                          3
 RS_GRID|   Bounds   1            -22      22                Points:          45
 RS_GRID|   Bounds   2            -54      53                Points:         108
 RS_GRID|   Bounds   3            -72      71                Points:         144
 RS_GRID| Real space fully replicated
 RS_GRID| Group size                                                           1

 RS_GRID| Information for grid number                                          4
 RS_GRID|   Bounds   1            -12      12                Points:          25
 RS_GRID|   Bounds   2            -32      31                Points:          64
 RS_GRID|   Bounds   3            -40      40                Points:          81
 RS_GRID| Real space fully replicated
 RS_GRID| Group size                                                           1

 -------------------------------------------------------------------------------
 -                                                                             -
 -  BSSE CALCULATION         FRAGMENT CONF: 10        FRAGMENT SUBCONF: 10     -
 -                           CHARGE =     0           MULTIPLICITY =     0     -
 -                                                                             -
 -                 ATOM INDEX                              ATOM NAME           -
 -                 ----------                              ---------           -
 -                      1                                   C                  -
 -                      2                                   C                  -
 -                      3                                   C                  -
 -                      4                                   C                  -
 -                      5                                   C                  -
 -                      6                                   C                  -
 -                      7                                   C                  -
 -                      8                                   C                  -
 -                      9                                   C                  -
 -                     10                                   C                  -
 -                     11                                   C                  -
 -                     12                                   C                  -
 -                     13                                   C                  -
 -                     14                                   C                  -
 -                     15                                   C                  -
 -                     16                                   C                  -
 -                     17                                   C                  -
 -                     18                                   C                  -
 -                     19                                   C                  -
 -                     20                                   C                  -
 -                     21                                   C                  -
 -                     22                                   C                  -
 -                     23                                   C                  -
 -                     24                                   C                  -
 -                     25                                   C                  -
 -                     26                                   C                  -
 -                     27                                   C                  -
 -                     28                                   C                  -
 -                     29                                   C                  -
 -                     30                                   C                  -
 -                     31                                   C                  -
 -                     32                                   C                  -
 -                     33                                   C                  -
 -                     34                                   C                  -
 -                     35                                   C                  -
 -                     36                                   C                  -
 -                     37                                   C                  -
 -                     38                                   C                  -
 -                     39                                   C                  -
 -                     40                                   C                  -
 -                     41                                   C                  -
 -                     42                                   C                  -
 -                     43                                   H                  -
 -                     44                                   H                  -
 -                     45                                   H                  -
 -                     46                                   H                  -
 -                     47                                   H                  -
 -                     48                                   H                  -
 -                     49                                   H                  -
 -                     50                                   H                  -
 -                     51                                   H                  -
 -                     52                                   H                  -
 -                     53                                   H                  -
 -                     54                                   H                  -
 -------------------------------------------------------------------------------

 CELL| Volume [angstrom^3]:                                            15412.800
 CELL| Vector a [angstrom]:      12.844     0.000     0.000    |a| =      12.844
 CELL| Vector b [angstrom]:       0.000    30.000     0.000    |b| =      30.000
 CELL| Vector c [angstrom]:       0.000     0.000    40.000    |c| =      40.000
 CELL| Angle (b,c), alpha [degree]:                                       90.000
 CELL| Angle (a,c), beta  [degree]:                                       90.000
 CELL| Angle (a,b), gamma [degree]:                                       90.000
 CELL| Requested initial symmetry:                                     TRICLINIC
 CELL| Numerically orthorhombic:                                             YES

 CELL_REF| Volume [angstrom^3]:                                        15412.800
 CELL_REF| Vector a [angstrom    12.844     0.000     0.000    |a| =      12.844
 CELL_REF| Vector b [angstrom     0.000    30.000     0.000    |b| =      30.000
 CELL_REF| Vector c [angstrom     0.000     0.000    40.000    |c| =      40.000
 CELL_REF| Angle (b,c), alpha [degree]:                                   90.000
 CELL_REF| Angle (a,c), beta  [degree]:                                   90.000
 CELL_REF| Angle (a,b), gamma [degree]:                                   90.000
 CELL_REF| Requested initial symmetry:                                 TRICLINIC
 CELL_REF| Numerically orthorhombic:                                         YES

 *******************************************************************************
 *******************************************************************************
 **                                                                           **
 **     #####                         ##              ##                      **
 **    ##   ##            ##          ##              ##                      **
 **   ##     ##                       ##            ######                    **
 **   ##     ##  ##   ##  ##   #####  ##  ##   ####   ##    #####    #####    **
 **   ##     ##  ##   ##  ##  ##      ## ##   ##      ##   ##   ##  ##   ##   **
 **   ##  ## ##  ##   ##  ##  ##      ####     ###    ##   ######   ######    **
 **    ##  ###   ##   ##  ##  ##      ## ##      ##   ##   ##       ##        **
 **     #######   #####   ##   #####  ##  ##  ####    ##    #####   ##        **
 **           ##                                                    ##        **
 **                                                                           **
 **                                                ... make the atoms dance   **
 **                                                                           **
 **            Copyright (C) by CP2K developers group (2000 - 2018)           **
 **                                                                           **
 *******************************************************************************

 DFT| Spin unrestricted (spin-polarized) Kohn-Sham calculation               UKS
 DFT| Multiplicity                                                             1
 DFT| Number of spin states                                                    2
 DFT| Charge                                                                   0
 DFT| Self-interaction correction (SIC)                                       NO
 DFT| Cutoffs: density                                              1.000000E-10
 DFT|          gradient                                             1.000000E-10
 DFT|          tau                                                  1.000000E-10
 DFT|          cutoff_smoothing_range                               0.000000E+00
 DFT| XC density smoothing                                                  NONE
 DFT| XC derivatives                                              SPLINE2_SMOOTH
 FUNCTIONAL| ROUTINE=NEW
 FUNCTIONAL| BECKE88:
 FUNCTIONAL| A. Becke, Phys. Rev. A 38, 3098 (1988) {LSD version}               
 FUNCTIONAL| LYP:
 FUNCTIONAL| C. Lee, W. Yang, R.G. Parr, Phys. Rev. B, 37, 785 (1988) {LSD versi
 FUNCTIONAL| on}                                                                
 vdW POTENTIAL|                                                   Pair Potential
 vdW POTENTIAL|          DFT-D3 (Version 3.1)
 vdW POTENTIAL|          Potential Form: S. Grimme et al, JCP 132: 154104 (2010)
 vdW POTENTIAL|          Zero Damping
 vdW POTENTIAL|          Cutoff Radius [Bohr]:                             20.00
 vdW POTENTIAL|          s6 Scaling Factor:                               1.0000
 vdW POTENTIAL|          sr6 Scaling Factor:                              1.0940
 vdW POTENTIAL|          s8 Scaling Factor:                               1.6820
 vdW POTENTIAL|          Cutoff for CN calculation:                   0.1000E-05

 QS| Method:                                                                 GPW
 QS| Density plane wave grid type                        NON-SPHERICAL FULLSPACE
 QS| Number of grid levels:                                                    4
 QS| Density cutoff [a.u.]:                                                150.0
 QS| Multi grid cutoff [a.u.]: 1) grid level                               150.0
 QS|                           2) grid level                                50.0
 QS|                           3) grid level                                16.7
 QS|                           4) grid level                                 5.6
 QS| Grid level progression factor:                                          3.0
 QS| Relative density cutoff [a.u.]:                                        20.0
 QS| Consistent realspace mapping and integration 
 QS| Interaction thresholds: eps_pgf_orb:                                1.0E-06
 QS|                         eps_filter_matrix:                          0.0E+00
 QS|                         eps_core_charge:                            1.0E-14
 QS|                         eps_rho_gspace:                             1.0E-12
 QS|                         eps_rho_rspace:                             1.0E-12
 QS|                         eps_gvg_rspace:                             1.0E-06
 QS|                         eps_ppl:                                    1.0E-02
 QS|                         eps_ppnl:                                   1.0E-08


 ATOMIC KIND INFORMATION

  1. Atomic kind: C                                     Number of atoms:      42

     Orbital Basis Set                                        DZVP-MOLOPT-SR-GTH

       Number of orbital shell sets:                                           1
       Number of orbital shells:                                               5
       Number of primitive Cartesian functions:                                5
       Number of Cartesian basis functions:                                   14
       Number of spherical basis functions:                                   13
       Norm type:                                                              2

       Normalised Cartesian orbitals:

                        Set   Shell   Orbital            Exponent    Coefficient

                          1       1    2s                5.605331       0.322515
                                                         2.113016       0.213043
                                                         0.769911      -0.209686
                                                         0.348157      -0.219794
                                                         0.128212      -0.022789

                          1       2    3s                5.605331       0.552234
                                                         2.113016       0.082072
                                                         0.769911       0.007843
                                                         0.348157       0.136893
                                                         0.128212       0.074283

                          1       3    3px               5.605331      -0.703879
                                                         2.113016      -0.642521
                                                         0.769911      -0.374851
                                                         0.348157      -0.139743
                                                         0.128212      -0.027849
                          1       3    3py               5.605331      -0.703879
                                                         2.113016      -0.642521
                                                         0.769911      -0.374851
                                                         0.348157      -0.139743
                                                         0.128212      -0.027849
                          1       3    3pz               5.605331      -0.703879
                                                         2.113016      -0.642521
                                                         0.769911      -0.374851
                                                         0.348157      -0.139743
                                                         0.128212      -0.027849

                          1       4    4px               5.605331      -0.480376
                                                         2.113016      -0.552894
                                                         0.769911      -0.316145
                                                         0.348157       0.210505
                                                         0.128212       0.076095
                          1       4    4py               5.605331      -0.480376
                                                         2.113016      -0.552894
                                                         0.769911      -0.316145
                                                         0.348157       0.210505
                                                         0.128212       0.076095
                          1       4    4pz               5.605331      -0.480376
                                                         2.113016      -0.552894
                                                         0.769911      -0.316145
                                                         0.348157       0.210505
                                                         0.128212       0.076095

                          1       5    4dx2              5.605331       0.640026
                                                         2.113016       0.274300
                                                         0.769911       0.446711
                                                         0.348157       0.028674
                                                         0.128212       0.029790
                          1       5    4dxy              5.605331       1.108557
                                                         2.113016       0.475102
                                                         0.769911       0.773726
                                                         0.348157       0.049666
                                                         0.128212       0.051599
                          1       5    4dxz              5.605331       1.108557
                                                         2.113016       0.475102
                                                         0.769911       0.773726
                                                         0.348157       0.049666
                                                         0.128212       0.051599
                          1       5    4dy2              5.605331       0.640026
                                                         2.113016       0.274300
                                                         0.769911       0.446711
                                                         0.348157       0.028674
                                                         0.128212       0.029790
                          1       5    4dyz              5.605331       1.108557
                                                         2.113016       0.475102
                                                         0.769911       0.773726
                                                         0.348157       0.049666
                                                         0.128212       0.051599
                          1       5    4dz2              5.605331       0.640026
                                                         2.113016       0.274300
                                                         0.769911       0.446711
                                                         0.348157       0.028674
                                                         0.128212       0.029790

     GTH Potential information for                                    GTH-PBE-q4

       Description:                       Goedecker-Teter-Hutter pseudopotential
                                           Goedecker et al., PRB 54, 1703 (1996)
                                          Hartwigsen et al., PRB 58, 3641 (1998)
                                                      Krack, TCA 114, 145 (2005)

       Gaussian exponent of the core charge distribution:               4.364419
       Electronic configuration (s p d ...):                               2   2

       Parameters of the local part of the GTH pseudopotential:

                          rloc        C1          C2          C3          C4
                        0.338471   -8.803674    1.339211

       Parameters of the non-local part of the GTH pseudopotential:

                   l      r(l)      h(i,j,l)

                   0    0.302576    9.622487
                   1    0.291507

  2. Atomic kind: H                                     Number of atoms:      12

     Orbital Basis Set                                        DZVP-MOLOPT-SR-GTH

       Number of orbital shell sets:                                           1
       Number of orbital shells:                                               3
       Number of primitive Cartesian functions:                                5
       Number of Cartesian basis functions:                                    5
       Number of spherical basis functions:                                    5
       Norm type:                                                              2

       Normalised Cartesian orbitals:

                        Set   Shell   Orbital            Exponent    Coefficient

                          1       1    2s               10.068468      -0.133023
                                                         2.680223      -0.177618
                                                         0.791502      -0.258419
                                                         0.239116      -0.107525
                                                         0.082193      -0.014019

                          1       2    3s               10.068468       0.344673
                                                         2.680223       1.819821
                                                         0.791502      -0.999069
                                                         0.239116       0.017430
                                                         0.082193       0.082660

                          1       3    3px              10.068468       0.155326
                                                         2.680223       0.367157
                                                         0.791502       0.311480
                                                         0.239116       0.080105
                                                         0.082193       0.033440
                          1       3    3py              10.068468       0.155326
                                                         2.680223       0.367157
                                                         0.791502       0.311480
                                                         0.239116       0.080105
                                                         0.082193       0.033440
                          1       3    3pz              10.068468       0.155326
                                                         2.680223       0.367157
                                                         0.791502       0.311480
                                                         0.239116       0.080105
                                                         0.082193       0.033440

     GTH Potential information for                                    GTH-PBE-q1

       Description:                       Goedecker-Teter-Hutter pseudopotential
                                           Goedecker et al., PRB 54, 1703 (1996)
                                          Hartwigsen et al., PRB 58, 3641 (1998)
                                                      Krack, TCA 114, 145 (2005)

       Gaussian exponent of the core charge distribution:              12.500000
       Electronic configuration (s p d ...):                                   1

       Parameters of the local part of the GTH pseudopotential:

                          rloc        C1          C2          C3          C4
                        0.200000   -4.178900    0.724463


 MOLECULE KIND INFORMATION


 All atoms are their own molecule, skipping detailed information


 TOTAL NUMBERS AND MAXIMUM NUMBERS

  Total number of            - Atomic kinds:                                   2
                             - Atoms:                                         54
                             - Shell sets:                                    54
                             - Shells:                                       246
                             - Primitive Cartesian functions:                270
                             - Cartesian basis functions:                    648
                             - Spherical basis functions:                    606

  Maximum angular momentum of- Orbital basis functions:                        2
                             - Local part of the GTH pseudopotential:          2
                             - Non-local part of the GTH pseudopotential:      0


 MODULE QUICKSTEP:  ATOMIC COORDINATES IN angstrom

  Atom  Kind  Element       X           Y           Z          Z(eff)       Mass

       1     1 C    6    0.031790    7.417300    0.005270      4.00      12.0107
       2     1 C    6   -0.662660    6.242100   -0.024560      4.00      12.0107
       3     1 C    6   -0.058210    4.964380   -0.037930      4.00      12.0107
       4     1 C    6   -0.608230    3.711920   -0.058210      4.00      12.0107
       5     1 C    6   -0.072770    2.450030   -0.036110      4.00      12.0107
       6     1 C    6   -0.688940    1.181190   -0.039350      4.00      12.0107
       7     1 C    6    0.000000    0.000000    0.000000      4.00      12.0107
       8     1 C    6    1.406230    0.009250    0.035050      4.00      12.0107
       9     1 C    6    1.429580    2.455100   -0.003360      4.00      12.0107
      10     1 C    6    2.139430    3.696990   -0.002550      4.00      12.0107
      11     1 C    6    1.444760    4.944370   -0.018430      4.00      12.0107
      12     1 C    6    2.155660    6.187420   -0.004450      4.00      12.0107
      13     1 C    6    1.441100    7.396910    0.009060      4.00      12.0107
      14     1 C    6    2.132840    1.211680    0.033120      4.00      12.0107
      15     1 C    6    4.312800    0.023410    0.100650      4.00      12.0107
      16     1 C    6    3.602500    1.209660    0.058710      4.00      12.0107
      17     1 C    6    4.320210    2.463970    0.036520      4.00      12.0107
      18     1 C    6    3.601350    3.683150    0.015210      4.00      12.0107
      19     1 C    6    4.324520    4.934350    0.010780      4.00      12.0107
      20     1 C    6    3.616150    6.168130    0.003800      4.00      12.0107
      21     1 C    6    4.358990    7.375240    0.012300      4.00      12.0107
      22     1 C    6    5.733650    7.382290    0.017540      4.00      12.0107
      23     1 C    6    6.476250    6.175410    0.012290      4.00      12.0107
      24     1 C    6    5.767720    4.933820    0.015770      4.00      12.0107
      25     1 C    6    6.495830    3.688490    0.025460      4.00      12.0107
      26     1 C    6    5.774150    2.439200    0.042290      4.00      12.0107
      27     1 C    6    6.492730    1.204950    0.059620      4.00      12.0107
      28     1 C    6    5.736000   -0.080300    0.088170      4.00      12.0107
      29     1 C    6    8.681860    0.000500    0.035970      4.00      12.0107
      30     1 C    6    7.940060    1.214430    0.043730      4.00      12.0107
      31     1 C    6    8.646840    2.460390    0.023370      4.00      12.0107
      32     1 C    6    7.939470    3.702410    0.022040      4.00      12.0107
      33     1 C    6    8.639650    4.958990    0.016900      4.00      12.0107
      34     1 C    6    7.929310    6.192410    0.015060      4.00      12.0107
      35     1 C    6    8.650240    7.412780    0.025100      4.00      12.0107
      36     1 C    6   10.049590    7.424730    0.030240      4.00      12.0107
      37     1 C    6   10.754570    6.242090    0.022350      4.00      12.0107
      38     1 C    6   10.129960    4.974410    0.018550      4.00      12.0107
      39     1 C    6   10.698240    3.719200    0.012680      4.00      12.0107
      40     1 C    6   10.147910    2.460370    0.006060      4.00      12.0107
      41     1 C    6   10.758580    1.191680   -0.009080      4.00      12.0107
      42     1 C    6   10.082800    0.000000    0.000000      4.00      12.0107
      43     2 H    1    6.260330   -1.241050    0.091690      1.00       1.0079
      44     2 H    1   10.617960   -0.948000   -0.016070      1.00       1.0079
      45     2 H    1    8.119260   -0.927510    0.057190      1.00       1.0079
      46     2 H    1    3.814690   -0.937200    0.130050      1.00       1.0079
      47     2 H    1    1.925890   -0.941910    0.063490      1.00       1.0079
      48     2 H    1   -0.528190   -0.952410    0.001060      1.00       1.0079
      49     2 H    1   10.570260    8.381450    0.039850      1.00       1.0079
      50     2 H    1    8.130910    8.366180    0.032890      1.00       1.0079
      51     2 H    1    6.237590    8.341530    0.027420      1.00       1.0079
      52     2 H    1    3.849690    8.330190    0.014340      1.00       1.0079
      53     2 H    1    1.965140    8.345420    0.023270      1.00       1.0079
      54     2 H    1   -0.489130    8.373650    0.019210      1.00       1.0079




 SCF PARAMETERS         Density guess:                                    ATOMIC
                        --------------------------------------------------------
                        max_scf:                                              50
                        max_scf_history:                                       0
                        max_diis:                                              4
                        --------------------------------------------------------
                        eps_scf:                                        3.00E-07
                        eps_scf_history:                                0.00E+00
                        eps_diis:                                       1.00E-01
                        eps_eigval:                                     1.00E-05
                        --------------------------------------------------------
                        level_shift [a.u.]:                                 0.00
                        added MOs                                       100  100
                        --------------------------------------------------------
                        Mixing method:                            BROYDEN_MIXING
                                                charge density mixing in g-space
                        --------------------------------------------------------
                        Smear method:                                FERMI_DIRAC
                        Electronic temperature [K]:                        300.0
                        Electronic temperature [a.u.]:                  9.50E-04
                        Accuracy threshold:                             1.00E-10
                        --------------------------------------------------------
                        Outer loop SCF in use 
                        No variables optimised in outer loop
                        eps_scf                                         1.00E-06
                        max_scf                                               30
                        DIIS optimization
                        DIIS buffer length                                     3
                        step_size                                       5.00E-01

 PW_GRID| Information for grid number                                          5
 PW_GRID| Grid distributed over                                    16 processors
 PW_GRID| Real space group dimensions                                    16    1
 PW_GRID| the grid is blocked:                                                NO
 PW_GRID| Cutoff [a.u.]                                                    150.0
 PW_GRID| spherical cutoff:                                                   NO
 PW_GRID|   Bounds   1            -67      67                Points:         135
 PW_GRID|   Bounds   2           -160     159                Points:         320
 PW_GRID|   Bounds   3           -216     215                Points:         432
 PW_GRID| Volume element (a.u.^3)  0.5573E-02     Volume (a.u.^3)    104010.7313
 PW_GRID| Grid span                                                    FULLSPACE
 PW_GRID|   Distribution                         Average         Max         Min
 PW_GRID|   G-Vectors                          1166400.0     1166400     1166400
 PW_GRID|   G-Rays                                8640.0        8640        8640
 PW_GRID|   Real Space Points                  1166400.0     1244160     1105920

 PW_GRID| Information for grid number                                          6
 PW_GRID| Grid distributed over                                    16 processors
 PW_GRID| Real space group dimensions                                    16    1
 PW_GRID| the grid is blocked:                                                NO
 PW_GRID| Cutoff [a.u.]                                                     50.0
 PW_GRID| spherical cutoff:                                                   NO
 PW_GRID|   Bounds   1            -40      39                Points:          80
 PW_GRID|   Bounds   2            -96      95                Points:         192
[...]
     55       Na     3       9.000    4.870   4.874           -0.004     -0.745

  Total Charge                                                            0.015
 !-----------------------------------------------------------------------------!

 *** WARNING in qs_loc_utils.F:1387 :: User requested the calculation of ***
 *** the localized wavefunction but the section LOCALIZE was not         ***
 *** specified. Localization will not be performed!                      ***


 -------------------------------------------------------------------------------
 ----                             MULTIGRID INFO                            ----
 -------------------------------------------------------------------------------
 count for grid        1:         237862          cutoff [a.u.]          150.00
 count for grid        2:          88906          cutoff [a.u.]           50.00
 count for grid        3:          47443          cutoff [a.u.]           16.67
 count for grid        4:          14910          cutoff [a.u.]            5.56
 total gridlevel count  :         389121

 -------------------------------------------------------------------------------
 -                                                                             -
 -                                 BSSE RESULTS                                -
 -                                                                             -
 -                 CP-corrected Total energy:     -291.977688                  -
 -                                                                             -
 -                       1-body contribution:     -244.804684                  -
 -                       1-body contribution:      -47.164922                  -
 -                                                                             -
 -                       2-body contribution:       -0.008082                  -
 -                 BSSE-free interaction energy:       -0.008082               -
 -------------------------------------------------------------------------------

 -------------------------------------------------------------------------------
 -                                                                             -
 -                                DBCSR STATISTICS                             -
 -                                                                             -
 -------------------------------------------------------------------------------
 COUNTER                                    TOTAL       BLAS       SMM       ACC
 flops     9 x     9 x     8               180144       0.0%    100.0%      0.0%
 flops     9 x     9 x     9               453438       0.0%    100.0%      0.0%
 flops     9 x     5 x     8               600480       0.0%    100.0%      0.0%
 flops     5 x     9 x     8               600480       0.0%    100.0%      0.0%
 flops     9 x     5 x     9               675540       0.0%    100.0%      0.0%
 flops     5 x     9 x     9               675540       0.0%    100.0%      0.0%
 flops     9 x     9 x    62              1386072       0.0%    100.0%      0.0%
 flops     9 x     9 x    34              2478600       0.0%    100.0%      0.0%
 flops     9 x     9 x    35              2551500       0.0%    100.0%      0.0%
 flops     5 x     5 x     8              4336800       0.0%    100.0%      0.0%
 flops     9 x     5 x    62              4620240       0.0%    100.0%      0.0%
 flops     5 x     9 x    62              4620240       0.0%    100.0%      0.0%
 flops     5 x     5 x     9              4878900       0.0%    100.0%      0.0%
 flops     9 x    13 x     8              5464368       0.0%    100.0%      0.0%
 flops    13 x     9 x     8              5464368       0.0%    100.0%      0.0%
 flops     9 x    13 x     9              6147414       0.0%    100.0%      0.0%
 flops    13 x     9 x     9              6147414       0.0%    100.0%      0.0%
 flops     9 x     5 x    34              8262000       0.0%    100.0%      0.0%
 flops     5 x     9 x    34              8262000       0.0%    100.0%      0.0%
 flops     9 x     5 x    35              8505000       0.0%    100.0%      0.0%
 flops     5 x     9 x    35              8505000       0.0%    100.0%      0.0%
 flops     9 x     9 x    32             10419840       0.0%    100.0%      0.0%
 flops     9 x     9 x    64             20093184       0.0%    100.0%      0.0%
 flops     9 x     5 x    32             34732800       0.0%    100.0%      0.0%
 flops     5 x     9 x    32             34732800       0.0%    100.0%      0.0%
 flops     5 x    13 x     8             36429120       0.0%    100.0%      0.0%
 flops    13 x     5 x     8             36429120       0.0%    100.0%      0.0%
 flops     5 x    13 x     9             40982760       0.0%    100.0%      0.0%
 flops    13 x     5 x     9             40982760       0.0%    100.0%      0.0%
 flops     9 x    13 x    62             42044184       0.0%    100.0%      0.0%
 flops    13 x     9 x    62             42044184       0.0%    100.0%      0.0%
 flops     5 x     5 x    34             59670000       0.0%    100.0%      0.0%
 flops     5 x     5 x    35             61425000       0.0%    100.0%      0.0%
 flops     5 x     5 x    62             62868000       0.0%    100.0%      0.0%
 flops     9 x     5 x    64             66977280       0.0%    100.0%      0.0%
 flops     5 x     9 x    64             66977280       0.0%    100.0%      0.0%
 flops     9 x    13 x    34             75184200       0.0%    100.0%      0.0%
 flops    13 x     9 x    34             75184200       0.0%    100.0%      0.0%
 flops     9 x    13 x    35             77395500       0.0%    100.0%      0.0%
 flops    13 x     9 x    35             77395500       0.0%    100.0%      0.0%
 flops     5 x     5 x    32            281299200       0.0%    100.0%      0.0%
 flops     9 x    13 x    32            316068480       0.0%    100.0%      0.0%
 flops    13 x     9 x    32            316068480       0.0%    100.0%      0.0%
 flops    13 x    13 x     8            339397968       0.0%    100.0%      0.0%
 flops    13 x    13 x     9            381822714       0.0%    100.0%      0.0%
 flops     5 x    13 x    34            501228000       0.0%    100.0%      0.0%
 flops    13 x     5 x    34            501228000       0.0%    100.0%      0.0%
 flops     5 x     5 x    64            514176000       0.0%    100.0%      0.0%
 flops     5 x    13 x    35            515970000       0.0%    100.0%      0.0%
 flops    13 x     5 x    35            515970000       0.0%    100.0%      0.0%
 flops     5 x    13 x    62            528091200       0.0%    100.0%      0.0%
 flops    13 x     5 x    62            528091200       0.0%    100.0%      0.0%
 flops     9 x    13 x    64            609493248       0.0%    100.0%      0.0%
 flops    13 x     9 x    64            609493248       0.0%    100.0%      0.0%
 flops     5 x    13 x    32           2362913280       0.0%    100.0%      0.0%
 flops    13 x     5 x    32           2362913280       0.0%    100.0%      0.0%
 flops     5 x    13 x    64           4319078400       0.0%    100.0%      0.0%
 flops    13 x     5 x    64           4319078400       0.0%    100.0%      0.0%
 flops    13 x    13 x    34           4669774200       0.0%    100.0%      0.0%
 flops    13 x    13 x    35           4807120500       0.0%    100.0%      0.0%
 flops    13 x    13 x    62           4920049680       0.0%    100.0%      0.0%
 flops    13 x    13 x    32          22014475392       0.0%    100.0%      0.0%
 flops    13 x    13 x    64          40239413760       0.0%    100.0%      0.0%
 flops inhomo. stacks                           0       0.0%      0.0%      0.0%
 flops total                        97.519998E+09       0.0%    100.0%      0.0%
 flops max/rank                      6.895540E+09       0.0%    100.0%      0.0%
 matmuls inhomo. stacks                         0       0.0%      0.0%      0.0%
 matmuls total                            8831412       0.0%    100.0%      0.0%
 number of processed stacks                420940       0.0%    100.0%      0.0%
 average stack size                                     0.0      21.0       0.0
 marketing flops                    84.559372E+09
 -------------------------------------------------------------------------------
 # multiplications                           1610
 max memory usage/rank               1.564488E+09
 # max total images/rank                        1
 # max 3D layers                                1
 # MPI messages exchanged                  154560
 MPI messages size (bytes):
  total size                         7.473992E+09
  min size                           0.000000E+00
  max size                          79.360000E+03
  average size                      48.356574E+03
 MPI breakdown and total messages size (bytes):
             size <=      128               15480                        0
       128 < size <=     8192                1032                   668736
      8192 < size <=    32768                6672                 69755760
     32768 < size <=   131072              131376               7403580000
    131072 < size <=  4194304                   0                        0
   4194304 < size <= 16777216                   0                        0
  16777216 < size                               0                        0
 -------------------------------------------------------------------------------

 MEMORY| Estimated peak process memory [MiB]                                1493

 -------------------------------------------------------------------------------
 ----                             MULTIGRID INFO                            ----
 -------------------------------------------------------------------------------
 count for grid        1:         231040          cutoff [a.u.]          150.00
 count for grid        2:          79680          cutoff [a.u.]           50.00
 count for grid        3:          41920          cutoff [a.u.]           16.67
 count for grid        4:          12160          cutoff [a.u.]            5.56
 total gridlevel count  :         364800

 -------------------------------------------------------------------------------
 -                                                                             -
 -                         MESSAGE PASSING PERFORMANCE                         -
 -                                                                             -
 -------------------------------------------------------------------------------

 ROUTINE             CALLS      AVE VOLUME [Bytes]
 MP_Group             1644
 MP_Bcast             2688                 534728.
 MP_Allreduce        30174                    532.
 MP_Sync              1634
 MP_Alltoall         65369                9037677.
 MP_SendRecv         19320                1105920.
 MP_ISendRecv        96900                 228096.
 MP_Wait            323220
 MP_comm_split        1610
 MP_ISend           155360                 561656.
 MP_IRecv           155360                 560933.
 MP_Recv               418                 146978.
 MP_Memory          120984
 -------------------------------------------------------------------------------


 -------------------------------------------------------------------------------
 -                                                                             -
 -                           R E F E R E N C E S                               -
 -                                                                             -
 -------------------------------------------------------------------------------
 
 CP2K version 7.0 (Development Version), the CP2K developers group (2018).
 CP2K is freely available from https://www.cp2k.org/ .

 Schuett, Ole; Messmer, Peter; Hutter, Juerg; VandeVondele, Joost. 
 Electronic Structure Calculations on Graphics Processing Units, John Wiley & Sons, Ltd, 173-190 (2016). 
 GPU-Accelerated Sparse Matrix-Matrix Multiplication for Linear Scaling Density Functional Theory.
 http://dx.doi.org/10.1002/9781118670712.ch8


 Borstnik, U; VandeVondele, J; Weber, V; Hutter, J. 
 PARALLEL COMPUTING, 40 (5-6), 47-58 (2014). 
 Sparse matrix multiplication: The distributed block-compressed sparse
 row library.
 http://dx.doi.org/10.1016/j.parco.2014.03.012


 Hutter, J; Iannuzzi, M; Schiffmann, F; VandeVondele, J. 
 WILEY INTERDISCIPLINARY REVIEWS-COMPUTATIONAL MOLECULAR SCIENCE, 4 (1), 15-25 (2014). 
 CP2K: atomistic simulations of condensed matter systems.
 http://dx.doi.org/10.1002/wcms.1159


 Grimme, S; Ehrlich, S; Goerigk, L. 
 JOURNAL OF COMPUTATIONAL CHEMISTRY, 32, 1456 (2011). 
 Effect of the damping function in dispersion corrected density functional theory.
 http://dx.doi.org/10.1002/jcc.21759


 Grimme, S; Antony, J; Ehrlich, S; Krieg, H. 
 JOURNAL OF CHEMICAL PHYSICS, 132 (15), 154104 (2010). 
 A consistent and accurate ab initio parametrization of density
 functional dispersion correction (DFT-D) for the 94 elements H-Pu.
 http://dx.doi.org/10.1063/1.3382344


 VandeVondele, J; Hutter, J. 
 JOURNAL OF CHEMICAL PHYSICS, 127 (11), 114105 (2007). 
 Gaussian basis sets for accurate calculations on molecular systems in
 gas and condensed phases.
 http://dx.doi.org/10.1063/1.2770708


 Krack, M. 
 THEORETICAL CHEMISTRY ACCOUNTS, 114 (1-3), 145-152 (2005). 
 Pseudopotentials for H to Kr optimized for gradient-corrected
 exchange-correlation functionals.
 http://dx.doi.org/10.1007/s00214-005-0655-y


 VandeVondele, J; Krack, M; Mohamed, F; Parrinello, M; Chassaing, T;
 Hutter, J. COMPUTER PHYSICS COMMUNICATIONS, 167 (2), 103-128 (2005). 
 QUICKSTEP: Fast and accurate density functional calculations using a
 mixed Gaussian and plane waves approach.
 http://dx.doi.org/10.1016/j.cpc.2004.12.014


 Frigo, M; Johnson, SG. 
 PROCEEDINGS OF THE IEEE, 93 (2), 216-231 (2005). 
 The design and implementation of FFTW3.
 http://dx.doi.org/10.1109/JPROC.2004.840301


 Hartwigsen, C; Goedecker, S; Hutter, J. 
 PHYSICAL REVIEW B, 58 (7), 3641-3662 (1998). 
 Relativistic separable dual-space Gaussian pseudopotentials from H to Rn.
 http://dx.doi.org/10.1103/PhysRevB.58.3641


 Lippert, G; Hutter, J; Parrinello, M. 
 MOLECULAR PHYSICS, 92 (3), 477-487 (1997). 
 A hybrid Gaussian and plane wave density functional scheme.
 http://dx.doi.org/10.1080/002689797170220


 Goedecker, S; Teter, M; Hutter, J. 
 PHYSICAL REVIEW B, 54 (3), 1703-1710 (1996). 
 Separable dual-space Gaussian pseudopotentials.
 http://dx.doi.org/10.1103/PhysRevB.54.1703


 BECKE, AD. PHYSICAL REVIEW A, 38 (6), 3098-3100 (1988). 
 DENSITY-FUNCTIONAL EXCHANGE-ENERGY APPROXIMATION WITH CORRECT
 ASYMPTOTIC-BEHAVIOR.
 http://dx.doi.org/10.1103/PhysRevA.38.3098


 LEE, CT; YANG, WT; PARR, RG. 
 PHYSICAL REVIEW B, 37 (2), 785-789 (1988). 
 DEVELOPMENT OF THE COLLE-SALVETTI CORRELATION-ENERGY FORMULA INTO A
 FUNCTIONAL OF THE ELECTRON-DENSITY.
 http://dx.doi.org/10.1103/PhysRevB.37.785


 -------------------------------------------------------------------------------
 -                                                                             -
 -                                T I M I N G                                  -
 -                                                                             -
 -------------------------------------------------------------------------------
 SUBROUTINE                       CALLS  ASD         SELF TIME        TOTAL TIME
                                MAXIMUM       AVERAGE  MAXIMUM  AVERAGE  MAXIMUM
 CP2K                                 1  1.0    0.109    0.119 2397.383 2397.384
 qs_energies                          5  2.0    0.005    0.005 2394.394 2394.395
 scf_env_do_scf                       5  3.0    0.002    0.003 2387.604 2387.675
 scf_env_do_scf_inner_loop          805  4.0    0.045    0.068 2387.597 2387.667
 qs_ks_update_qs_env                805  5.0    0.007    0.009  986.780  986.845
 rebuild_ks_matrix                  805  6.0    0.002    0.002  986.588  986.643
 qs_ks_build_kohn_sham_matrix       805  7.0    0.087    0.098  986.586  986.641
 pw_transfer                      18534  9.0    1.154    1.375  902.608  953.964
 fft_wrap_pw1pw2                  16924 10.0    0.127    0.141  892.560  944.523
 fft_wrap_pw1pw2_150               7234 10.2   51.631   61.996  816.174  881.136
 fft3d_ps                         16924 12.0  389.440  451.950  594.725  682.387
 gspace_mixing                      787  5.0    4.980    5.326  680.064  680.065
 qs_rho_update_rho                  810  5.0    0.006    0.007  660.021  660.067
 calculate_rho_elec                1620  6.0   48.392  162.337  660.015  660.062
 density_rs2pw                     1620  7.0    0.062    0.069  576.473  627.412
 sum_up_and_integrate               805  8.0    5.008    6.543  503.532  503.579
 integrate_v_rspace                1610  9.0   52.262  192.248  498.522  500.895
 broyden_mixing                     787  6.0  398.796  435.687  442.539  451.479
 qs_vxc_create                      805  8.0    0.012    0.014  343.736  359.176
 xc_vxc_pw_create                   805  9.0   26.893   35.810  343.724  359.164
 potential_pw2rs                   1610 10.0    0.360    0.400  304.549  306.780
 rs_pw_transfer                   12940  9.5    0.146    0.178  238.542  268.857
 xc_rho_set_and_dset_create         805 10.0   34.274   40.713  225.522  248.881
 mp_alltoall_z22v                 16924 14.0  121.159  195.575  121.159  195.575
 mp_waitany                      129600 11.5  142.608  182.337  142.608  182.337
 mp_alltoall_d11v                 22585  9.3  144.434  181.710  144.434  181.710
 rs_distribute_matrix              3230  8.5    0.436    1.123  144.170  181.087
 pw_nn_compose_r                   9660 10.5   94.394   99.464  142.822  170.862
 rs_pw_transfer_RS2PW_150          1630  9.0   17.223   20.652  137.327  166.662
 mp_sum_d                         12399  7.6   60.710  158.863   60.710  158.863
 pw_gather_p                       8095 11.6  140.345  156.682  140.345  156.682
 x_to_yz                           8829 13.3   45.941   58.460  112.646  133.896
 yz_to_x                           8095 12.6   37.927   44.552   92.380  128.874
 xc_functional_eval                1610 11.0    0.022    0.032  103.722  111.673
 pw_scatter_p                      8829 12.3  102.649  109.157  102.649  109.157
 fft_wrap_pw1pw2_50                3230 11.5    2.423    2.958   64.119   87.083
 mp_sendrecv_dm2                  19320 11.5   48.428   86.399   48.428   86.399
 lyp_lsd_eval                       805 12.0   75.419   82.295   75.419   82.295
 mp_sum_dm                         1569  7.0   25.927   71.851   25.927   71.851
 qs_scf_new_mos                     805  5.0    0.010    0.012   64.269   64.298
 eigensolver                       1610  6.0    0.073    0.091   59.804   59.830
 pw_axpy                          16073  8.2   43.987   52.970   43.987   52.970
 cp_fm_syevd                       1610  7.0    0.004    0.006   50.637   50.663
 rs_pw_transfer_PW2RS_150          1620 12.0   24.507   29.248   47.208   50.346
 cp_fm_redistribute_end            1610  8.0   12.926   49.978   13.052   50.026
 cp_fm_syevd_base                  1610  8.0   36.836   49.168   36.836   49.168
 -------------------------------------------------------------------------------

 The number of warnings for this run is : 8
 
 -------------------------------------------------------------------------------
  **** **** ******  **  PROGRAM ENDED AT                 2024-07-17 15:10:48.918
 ***** ** ***  *** **   PROGRAM RAN ON                                sebnode131
 **    ****   ******    PROGRAM RAN BY                                    luehrs
 ***** **    ** ** **   PROGRAM PROCESS ID                                305437
  **** **  *******  **  PROGRAM STOPPED IN /home/luehrs/PhD/Sodium_batteries/Sod
                                           ium-graphene-edge/Armchair_2/Hydrogen
