 DBCSR| Multiplication driver                                               XSMM
 DBCSR| Multrec recursion limit                                              512
 DBCSR| Multiplication stack size                                           1000
 DBCSR| Maximum elements for images                                    UNLIMITED
 DBCSR| Multiplicative factor virtual images                                   1
 DBCSR| Multiplication size stacks                                             3
 DBCSR| Number of 3D layers                                               SINGLE
 DBCSR| Use MPI memory allocation                                              T
 DBCSR| Use RMA algorithm                                                      F
 DBCSR| Use Communication thread                                               T
 DBCSR| Communication thread load                                             87


  **** **** ******  **  PROGRAM STARTED AT               2024-07-25 13:00:16.702
 ***** ** ***  *** **   PROGRAM STARTED ON                            sebnode131
 **    ****   ******    PROGRAM STARTED BY                                luehrs
 ***** **    ** ** **   PROGRAM PROCESS ID                                340792
  **** **  *******  **  PROGRAM STARTED IN /home/luehrs/PhD/Sodium_batteries/Sod
                                           ium-graphene-edge/Zig_zag_3/Hydrogen

 CP2K| version string:                    CP2K version 7.0 (Development Version)
 CP2K| source code revision number:                                             
 CP2K| cp2kflags: libint fftw3 libxc parallel mpi3 scalapack xsmm libderiv_max_a
 CP2K|            m1=8 libint_max_am=9 max_contr=4
 CP2K| is freely available from                            https://www.cp2k.org/
 CP2K| Program compiled at                         Sun Jun 24 14:37:16 CEST 2018
 CP2K| Program compiled on                                            sebstorage
 CP2K| Program compiled for                                Linux-x86-64-gfortran
 CP2K| Data directory path    /home/brehm/Software_Batchnode/2018/Source/cp2k_18
 CP2K| Input file name                         graphene_zig_zag_BSSE-1_2.restart

 GLOBAL| Force Environment number                                              1
 GLOBAL| Basis set file name                                      ./BASIS_MOLOPT
 GLOBAL| Potential file name                                    ./GTH_POTENTIALS
 GLOBAL| MM Potential file name                                     MM_POTENTIAL
 GLOBAL| Coordinate file name              graphene_hydrogen_zig-zag_relaxed.xyz
 GLOBAL| Method name                                                        CP2K
 GLOBAL| Project name                                      graphene_zig_zag_BSSE
 GLOBAL| Preferred FFT library                                             FFTW3
 GLOBAL| Preferred diagonalization lib.                                       SL
 GLOBAL| Run type                                                           BSSE
 GLOBAL| All-to-all communication in single precision                          F
 GLOBAL| FFTs using library dependent lengths                                  F
 GLOBAL| Global print level                                                  LOW
 GLOBAL| Total number of message passing processes                            16
 GLOBAL| Number of threads for this process                                    1
 GLOBAL| This output is from process                                           0
 GLOBAL| CPU model name :  AMD EPYC 7513 32-Core Processor

 MEMORY| system memory details [Kb]
 MEMORY|                        rank 0           min           max       average
 MEMORY| MemTotal            131901556     131901556     131901556     131901556
 MEMORY| MemFree              35926072      35853132      35926072      35859083
 MEMORY| Buffers                139368        139368        139368        139368
 MEMORY| Cached                 474808        474808        474808        474808
 MEMORY| Slab                  1284700       1284700       1284700       1284700
 MEMORY| SReclaimable           451620        451620        451620        451620
 MEMORY| MemLikelyFree        36991868      36918928      36991868      36924879


 GENERATE|  Preliminary Number of Bonds generated:                             0
 GENERATE|  Achieved consistency in connectivity generation.

 *******************************************************************************
 *******************************************************************************
 **                                                                           **
 **     #####                         ##              ##                      **
 **    ##   ##            ##          ##              ##                      **
 **   ##     ##                       ##            ######                    **
 **   ##     ##  ##   ##  ##   #####  ##  ##   ####   ##    #####    #####    **
 **   ##     ##  ##   ##  ##  ##      ## ##   ##      ##   ##   ##  ##   ##   **
 **   ##  ## ##  ##   ##  ##  ##      ####     ###    ##   ######   ######    **
 **    ##  ###   ##   ##  ##  ##      ## ##      ##   ##   ##       ##        **
 **     #######   #####   ##   #####  ##  ##  ####    ##    #####   ##        **
 **           ##                                                    ##        **
 **                                                                           **
 **                                                ... make the atoms dance   **
 **                                                                           **
 **            Copyright (C) by CP2K developers group (2000 - 2018)           **
 **                                                                           **
 *******************************************************************************


 TOTAL NUMBERS AND MAXIMUM NUMBERS

  Total number of            - Atomic kinds:                                   3
                             - Atoms:                                        129
                             - Shell sets:                                   129
                             - Shells:                                       613
                             - Primitive Cartesian functions:                647
                             - Cartesian basis functions:                   1657
                             - Spherical basis functions:                   1545

  Maximum angular momentum of- Orbital basis functions:                        2
                             - Local part of the GTH pseudopotential:          2
                             - Non-local part of the GTH pseudopotential:      1


 SCF PARAMETERS         Density guess:                                    ATOMIC
                        --------------------------------------------------------
                        max_scf:                                             400
                        max_scf_history:                                       0
                        max_diis:                                              4
                        --------------------------------------------------------
                        eps_scf:                                        3.00E-07
                        eps_scf_history:                                0.00E+00
                        eps_diis:                                       1.00E-01
                        eps_eigval:                                     1.00E-05
                        --------------------------------------------------------
                        level_shift [a.u.]:                                 0.00
                        added MOs                                       100  100
                        --------------------------------------------------------
                        Mixing method:                            BROYDEN_MIXING
                                                charge density mixing in g-space
                        --------------------------------------------------------
                        Smear method:                                FERMI_DIRAC
                        Electronic temperature [K]:                        300.0
                        Electronic temperature [a.u.]:                  9.50E-04
                        Accuracy threshold:                             1.00E-10
                        --------------------------------------------------------
                        Outer loop SCF in use 
                        No variables optimised in outer loop
                        eps_scf                                         1.00E-06
                        max_scf                                              100
                        DIIS optimization
                        DIIS buffer length                                     3
                        step_size                                       5.00E-01

 -------------------------------------------------------------------------------
 -                                                                             -
 -  BSSE CALCULATION         FRAGMENT CONF: 11        FRAGMENT SUBCONF: 10     -
 -                           CHARGE =     0           MULTIPLICITY =     0     -
 -                                                                             -
 -                 ATOM INDEX                              ATOM NAME           -
 -                 ----------                              ---------           -
 -                      1                                   C                  -
 -                      2                                   C                  -
 -                      3                                   C                  -
 -                      4                                   C                  -
 -                      5                                   C                  -
 -                      6                                   C                  -
 -                      7                                   C                  -
 -                      8                                   C                  -
 -                      9                                   C                  -
 -                     10                                   C                  -
 -                     11                                   C                  -
 -                     12                                   C                  -
 -                     13                                   C                  -
 -                     14                                   C                  -
 -                     15                                   C                  -
 -                     16                                   C                  -
 -                     17                                   C                  -
 -                     18                                   C                  -
 -                     19                                   C                  -
 -                     20                                   C                  -
 -                     21                                   C                  -
 -                     22                                   C                  -
 -                     23                                   C                  -
 -                     24                                   C                  -
 -                     25                                   C                  -
 -                     26                                   C                  -
 -                     27                                   C                  -
 -                     28                                   C                  -
 -                     29                                   C                  -
 -                     30                                   C                  -
 -                     31                                   C                  -
 -                     32                                   C                  -
 -                     33                                   C                  -
 -                     34                                   C                  -
 -                     35                                   C                  -
 -                     36                                   C                  -
 -                     37                                   C                  -
 -                     38                                   C                  -
 -                     39                                   C                  -
 -                     40                                   C                  -
 -                     41                                   C                  -
 -                     42                                   C                  -
 -                     43                                   C                  -
 -                     44                                   C                  -
 -                     45                                   C                  -
 -                     46                                   C                  -
 -                     47                                   C                  -
 -                     48                                   C                  -
 -                     49                                   C                  -
 -                     50                                   C                  -
 -                     51                                   C                  -
 -                     52                                   C                  -
 -                     53                                   C                  -
 -                     54                                   C                  -
 -                     55                                   C                  -
 -                     56                                   C                  -
 -                     57                                   C                  -
 -                     58                                   C                  -
 -                     59                                   C                  -
 -                     60                                   C                  -
 -                     61                                   C                  -
 -                     62                                   C                  -
 -                     63                                   C                  -
 -                     64                                   C                  -
 -                     65                                   C                  -
 -                     66                                   C                  -
 -                     67                                   C                  -
 -                     68                                   C                  -
 -                     69                                   C                  -
 -                     70                                   C                  -
 -                     71                                   C                  -
 -                     72                                   C                  -
 -                     73                                   C                  -
 -                     74                                   C                  -
 -                     75                                   C                  -
 -                     76                                   C                  -
 -                     77                                   C                  -
 -                     78                                   C                  -
 -                     79                                   C                  -
 -                     80                                   C                  -
 -                     81                                   C                  -
 -                     82                                   C                  -
 -                     83                                   C                  -
 -                     84                                   C                  -
 -                     85                                   C                  -
 -                     86                                   C                  -
 -                     87                                   C                  -
 -                     88                                   C                  -
 -                     89                                   C                  -
 -                     90                                   C                  -
 -                     91                                   C                  -
 -                     92                                   C                  -
 -                     93                                   C                  -
 -                     94                                   C                  -
 -                     95                                   C                  -
 -                     96                                   C                  -
 -                     97                                   C                  -
 -                     98                                   C                  -
 -                     99                                   C                  -
 -                    100                                   C                  -
 -                    101                                   C                  -
 -                    102                                   C                  -
 -                    103                                   C                  -
 -                    104                                   C                  -
 -                    105                                   C                  -
 -                    106                                   C                  -
 -                    107                                   C                  -
 -                    108                                   C                  -
 -                    109                                   C                  -
 -                    110                                   C                  -
 -                    111                                   C                  -
 -                    112                                   C                  -
 -                    113                                   H                  -
 -                    114                                   H                  -
 -                    115                                   H                  -
 -                    116                                   H                  -
 -                    117                                   H                  -
 -                    118                                   H                  -
 -                    119                                   H                  -
 -                    120                                   H                  -
 -                    121                                   H                  -
 -                    122                                   H                  -
 -                    123                                   H                  -
 -                    124                                   H                  -
 -                    125                                   H                  -
 -                    126                                   H                  -
 -                    127                                   H                  -
 -                    128                                   H                  -
 -                    129                                   Na_ghost           -
 -------------------------------------------------------------------------------

 *******************************************************************************
 *******************************************************************************
 **                                                                           **
 **     #####                         ##              ##                      **
 **    ##   ##            ##          ##              ##                      **
 **   ##     ##                       ##            ######                    **
 **   ##     ##  ##   ##  ##   #####  ##  ##   ####   ##    #####    #####    **
 **   ##     ##  ##   ##  ##  ##      ## ##   ##      ##   ##   ##  ##   ##   **
 **   ##  ## ##  ##   ##  ##  ##      ####     ###    ##   ######   ######    **
 **    ##  ###   ##   ##  ##  ##      ## ##      ##   ##   ##       ##        **
 **     #######   #####   ##   #####  ##  ##  ####    ##    #####   ##        **
 **           ##                                                    ##        **
 **                                                                           **
 **                                                ... make the atoms dance   **
 **                                                                           **
 **            Copyright (C) by CP2K developers group (2000 - 2018)           **
 **                                                                           **
 *******************************************************************************


 TOTAL NUMBERS AND MAXIMUM NUMBERS

  Total number of            - Atomic kinds:                                   3
                             - Atoms:                                        129
                             - Shell sets:                                   129
                             - Shells:                                       613
                             - Primitive Cartesian functions:                647
                             - Cartesian basis functions:                   1657
                             - Spherical basis functions:                   1545

  Maximum angular momentum of- Orbital basis functions:                        2
                             - Local part of the GTH pseudopotential:          2
                             - Non-local part of the GTH pseudopotential:      0


 SCF PARAMETERS         Density guess:                                    ATOMIC
                        --------------------------------------------------------
                        max_scf:                                             400
                        max_scf_history:                                       0
                        max_diis:                                              4
                        --------------------------------------------------------
                        eps_scf:                                        3.00E-07
                        eps_scf_history:                                0.00E+00
                        eps_diis:                                       1.00E-01
                        eps_eigval:                                     1.00E-05
                        --------------------------------------------------------
                        level_shift [a.u.]:                                 0.00
                        added MOs                                       100  100
                        --------------------------------------------------------
                        Mixing method:                            BROYDEN_MIXING
                                                charge density mixing in g-space
                        --------------------------------------------------------
                        Smear method:                                FERMI_DIRAC
                        Electronic temperature [K]:                        300.0
                        Electronic temperature [a.u.]:                  9.50E-04
                        Accuracy threshold:                             1.00E-10
                        --------------------------------------------------------
                        Outer loop SCF in use 
                        No variables optimised in outer loop
                        eps_scf                                         1.00E-06
                        max_scf                                              100
                        DIIS optimization
                        DIIS buffer length                                     3
                        step_size                                       5.00E-01

 Spin 1

 Number of electrons:                                                        232
 Number of occupied orbitals:                                                232
 Number of molecular orbitals:                                               332

 Spin 2

 Number of electrons:                                                        232
 Number of occupied orbitals:                                                232
 Number of molecular orbitals:                                               332

 Number of orbital functions:                                               1545
 Number of independent orbital functions:                                   1545

 Extrapolation method: initial_guess


 SCF WAVEFUNCTION OPTIMIZATION

  Step     Update method      Time    Convergence         Total energy    Change
  ------------------------------------------------------------------------------
     1 NoMix/Diag. 0.10E+00    3.2     0.45118899      -636.4164223400 -6.36E+02
     2 Broy./Diag. 0.10E+00    5.7     0.04872029      -609.9980644389  2.64E+01
     3 Broy./Diag. 0.10E+00    6.8     0.14129038      -624.0992477516 -1.41E+01
     4 Broy./Diag. 0.10E+00    6.1     7.62202059      -637.3984968248 -1.33E+01
     5 Broy./Diag. 0.10E+00    6.9     7.62197248      -616.9399262246  2.05E+01
     6 Broy./Diag. 0.10E+00    6.0     7.54136150      -641.0939965413 -2.42E+01
     7 Broy./Diag. 0.10E+00    7.2     7.54135785      -618.4434002740  2.27E+01
     8 Broy./Diag. 0.10E+00    6.1     7.68262838      -641.5231001652 -2.31E+01
     9 Broy./Diag. 0.10E+00    8.0     7.68262991      -595.0002357930  4.65E+01
    10 Broy./Diag. 0.10E+00    6.7     7.57698144      -641.6570398919 -4.67E+01
    11 Broy./Diag. 0.10E+00    7.4     7.57697905      -589.6954288501  5.20E+01
    12 Broy./Diag. 0.10E+00    6.9     7.61565602      -641.8258692954 -5.21E+01
    13 Broy./Diag. 0.10E+00    7.2     7.61565376      -574.8449699703  6.70E+01
    14 Broy./Diag. 0.10E+00    7.2     7.60292355      -641.7317634705 -6.69E+01
    15 Broy./Diag. 0.10E+00    7.3     7.60292002      -597.5020772082  4.42E+01
    16 Broy./Diag. 0.10E+00    7.7     7.59476571      -641.9466246008 -4.44E+01
    17 Broy./Diag. 0.10E+00    6.9     7.59945674      -597.6755097140  4.43E+01
    18 Broy./Diag. 0.10E+00    7.6     7.71404951      -642.1001244751 -4.44E+01
    19 Broy./Diag. 0.10E+00    7.0     7.71404837      -574.2682256436  6.78E+01
    20 Broy./Diag. 0.10E+00    7.9     0.00300662      -642.1874792362 -6.79E+01
    21 Broy./Diag. 0.10E+00    7.2     0.02379066      -642.2604650888 -7.30E-02
    22 Broy./Diag. 0.10E+00    7.6     0.00512114      -642.8497623714 -5.89E-01
    23 Broy./Diag. 0.10E+00    7.5     0.01815559      -642.9628620129 -1.13E-01
    24 Broy./Diag. 0.10E+00    7.2     0.00317912      -643.1882273320 -2.25E-01
    25 Broy./Diag. 0.10E+00    8.1     0.00259512      -643.2796837595 -9.15E-02
    26 Broy./Diag. 0.10E+00    7.3     0.00189271      -643.4573765840 -1.78E-01
    27 Broy./Diag. 0.10E+00    7.5     0.00288297      -643.5008804691 -4.35E-02
    28 Broy./Diag. 0.10E+00    7.3     0.00120328      -643.5907801923 -8.99E-02
    29 Broy./Diag. 0.10E+00    7.3     0.00392909      -643.5878148097  2.97E-03
    30 Broy./Diag. 0.10E+00    7.7     0.00063798      -643.6106106100 -2.28E-02
    31 Broy./Diag. 0.10E+00    7.1     0.00064900      -643.6211604439 -1.05E-02
    32 Broy./Diag. 0.10E+00    7.8     0.00111736      -643.6255030038 -4.34E-03
    33 Broy./Diag. 0.10E+00    6.6     0.00041895      -643.6265796733 -1.08E-03
    34 Broy./Diag. 0.10E+00    7.7     0.00056212      -643.6267881430 -2.08E-04
    35 Broy./Diag. 0.10E+00    6.3     0.00036127      -643.6371903859 -1.04E-02
    36 Broy./Diag. 0.10E+00    6.3     0.00018912      -643.6523109100 -1.51E-02
    37 Broy./Diag. 0.10E+00    7.6     0.00039844      -643.6590852218 -6.77E-03
    38 Broy./Diag. 0.10E+00    6.3     0.00012516      -643.6603513625 -1.27E-03
    39 Broy./Diag. 0.10E+00    7.6     0.00025991      -643.6644464171 -4.10E-03
    40 Broy./Diag. 0.10E+00    6.3     0.00010261      -643.6689706583 -4.52E-03
    41 Broy./Diag. 0.10E+00    7.7     0.00020037      -643.6730998440 -4.13E-03
    42 Broy./Diag. 0.10E+00    6.8     0.00003430      -643.6774414344 -4.34E-03
    43 Broy./Diag. 0.10E+00    7.4     0.00016762      -643.6772997585  1.42E-04
    44 Broy./Diag. 0.10E+00    6.9     0.00004603      -643.6773639809 -6.42E-05
    45 Broy./Diag. 0.10E+00    7.3     0.00009965      -643.6764931261  8.71E-04
    46 Broy./Diag. 0.10E+00    7.4     0.00004073      -643.6786127672 -2.12E-03
    47 Broy./Diag. 0.10E+00    7.4     0.00002541      -643.6791019238 -4.89E-04
    48 Broy./Diag. 0.10E+00    7.7     0.00005438      -643.6789884221  1.14E-04
    49 Broy./Diag. 0.10E+00    7.2     0.00000961      -643.6790546863 -6.63E-05
    50 Broy./Diag. 0.10E+00    7.8     0.00004683      -643.6792127739 -1.58E-04
    51 Broy./Diag. 0.10E+00    7.0     0.00002133      -643.6791361778  7.66E-05
    52 Broy./Diag. 0.10E+00    7.7     0.00002614      -643.6789653776  1.71E-04
    53 Broy./Diag. 0.10E+00    7.2     0.00001578      -643.6790345652 -6.92E-05
    54 Broy./Diag. 0.10E+00    7.4     0.00000897      -643.6792686610 -2.34E-04
    55 Broy./Diag. 0.10E+00    7.8     0.00000825      -643.6791936801  7.50E-05
    56 Broy./Diag. 0.10E+00    7.1     0.00001012      -643.6787456327  4.48E-04
    57 Broy./Diag. 0.10E+00    7.9     0.00001188      -643.6783957255  3.50E-04
    58 Broy./Diag. 0.10E+00    6.8     0.00000370      -643.6783291747  6.66E-05
    59 Broy./Diag. 0.10E+00    7.8     0.00000262      -643.6783082625  2.09E-05
    60 Broy./Diag. 0.10E+00    6.7     0.00000588      -643.6782962806  1.20E-05
    61 Broy./Diag. 0.10E+00    7.6     0.00000174      -643.6782882909  7.99E-06
    62 Broy./Diag. 0.10E+00    6.9     0.00000446      -643.6783031935 -1.49E-05
    63 Broy./Diag. 0.10E+00    7.1     0.00000241      -643.6783278076 -2.46E-05
    64 Broy./Diag. 0.10E+00    6.7     0.00000474      -643.6783346026 -6.80E-06
    65 Broy./Diag. 0.10E+00    7.2     0.00000099      -643.6783591332 -2.45E-05
    66 Broy./Diag. 0.10E+00    6.8     0.00000155      -643.6784233170 -6.42E-05
    67 Broy./Diag. 0.10E+00    7.2     0.00000061      -643.6785060922 -8.28E-05
    68 Broy./Diag. 0.10E+00    7.1     0.00000142      -643.6785024186  3.67E-06
    69 Broy./Diag. 0.10E+00    7.2     0.00000063      -643.6785092533 -6.83E-06
    70 Broy./Diag. 0.10E+00    7.5     0.00000126      -643.6785078324  1.42E-06
    71 Broy./Diag. 0.10E+00    7.0     0.00000036      -643.6785107107 -2.88E-06
    72 Broy./Diag. 0.10E+00    7.6     0.00000074      -643.6785176325 -6.92E-06
    73 Broy./Diag. 0.10E+00    6.6     0.00000057      -643.6785183569 -7.24E-07
    74 Broy./Diag. 0.10E+00    7.6     0.00000065      -643.6785155286  2.83E-06
    75 Broy./Diag. 0.10E+00    6.8     0.00000062      -643.6785152850  2.44E-07
    76 Broy./Diag. 0.10E+00    7.7     0.00000080      -643.6785205009 -5.22E-06
    77 Broy./Diag. 0.10E+00    7.0     0.00000077      -643.6785198260  6.75E-07
    78 Broy./Diag. 0.10E+00    7.4     0.00000057      -643.6785184170  1.41E-06
    79 Broy./Diag. 0.10E+00    7.0     0.00000063      -643.6785163913  2.03E-06
    80 Broy./Diag. 0.10E+00    7.4     0.00000071      -643.6785140709  2.32E-06
    81 Broy./Diag. 0.10E+00    8.0     0.00000055      -643.6785129986  1.07E-06
    82 Broy./Diag. 0.10E+00    7.2     0.00000072      -643.6785143282 -1.33E-06
    83 Broy./Diag. 0.10E+00    7.7     0.00000052      -643.6785167999 -2.47E-06
    84 Broy./Diag. 0.10E+00    7.1     0.00000075      -643.6785185948 -1.79E-06
    85 Broy./Diag. 0.10E+00    7.4     0.00000061      -643.6785205488 -1.95E-06
    86 Broy./Diag. 0.10E+00    7.5     0.00000020      -643.6785215582 -1.01E-06

  *** SCF run converged in    86 steps ***


  Electronic density on regular grids:       -463.9999999986        0.0000000014
  Core density on regular grids:              463.9999999995       -0.0000000005
  Total charge density on r-space grids:        0.0000000009
  Total charge density g-space grids:           0.0000000009

  Overlap energy of the core charge distribution:               0.00002384473555
  Self energy of the core charge distribution:              -1516.08847113961383
  Core Hamiltonian energy:                                    477.28173000165680
  Hartree energy:                                             593.22145327057592
  Exchange-correlation energy:                               -197.84328546056491
  Dispersion energy:                                           -0.24693397129903
  Electronic entropic energy:                                  -0.00303810292984
  Fermi energy:                                                -0.11238444938981

  Total energy:                                              -643.67852155816149

  outer SCF iter =    1 RMS gradient =   0.20E-06 energy =       -643.6785215582
  outer SCF loop converged in   1 iterations or   86 steps


  Integrated absolute spin density  :                               0.0000000000
  WARNING: S**2 computation does not yet treat fractional occupied orbitals

 *** WARNING in qs_loc_utils.F:1387 :: User requested the calculation of ***
 *** the localized wavefunction but the section LOCALIZE was not         ***
 *** specified. Localization will not be performed!                      ***


 -------------------------------------------------------------------------------
 -                                                                             -
 -  BSSE CALCULATION         FRAGMENT CONF: 11        FRAGMENT SUBCONF: 01     -
 -                           CHARGE =     0           MULTIPLICITY =     0     -
 -                                                                             -
 -                 ATOM INDEX                              ATOM NAME           -
 -                 ----------                              ---------           -
 -                      1                                   C_ghost            -
 -                      2                                   C_ghost            -
 -                      3                                   C_ghost            -
 -                      4                                   C_ghost            -
 -                      5                                   C_ghost            -
 -                      6                                   C_ghost            -
 -                      7                                   C_ghost            -
 -                      8                                   C_ghost            -
 -                      9                                   C_ghost            -
 -                     10                                   C_ghost            -
 -                     11                                   C_ghost            -
 -                     12                                   C_ghost            -
 -                     13                                   C_ghost            -
 -                     14                                   C_ghost            -
 -                     15                                   C_ghost            -
 -                     16                                   C_ghost            -
 -                     17                                   C_ghost            -
 -                     18                                   C_ghost            -
 -                     19                                   C_ghost            -
 -                     20                                   C_ghost            -
 -                     21                                   C_ghost            -
 -                     22                                   C_ghost            -
 -                     23                                   C_ghost            -
 -                     24                                   C_ghost            -
 -                     25                                   C_ghost            -
 -                     26                                   C_ghost            -
 -                     27                                   C_ghost            -
 -                     28                                   C_ghost            -
 -                     29                                   C_ghost            -
 -                     30                                   C_ghost            -
 -                     31                                   C_ghost            -
 -                     32                                   C_ghost            -
 -                     33                                   C_ghost            -
 -                     34                                   C_ghost            -
 -                     35                                   C_ghost            -
 -                     36                                   C_ghost            -
 -                     37                                   C_ghost            -
 -                     38                                   C_ghost            -
 -                     39                                   C_ghost            -
 -                     40                                   C_ghost            -
 -                     41                                   C_ghost            -
 -                     42                                   C_ghost            -
 -                     43                                   C_ghost            -
 -                     44                                   C_ghost            -
 -                     45                                   C_ghost            -
 -                     46                                   C_ghost            -
 -                     47                                   C_ghost            -
 -                     48                                   C_ghost            -
 -                     49                                   C_ghost            -
 -                     50                                   C_ghost            -
 -                     51                                   C_ghost            -
 -                     52                                   C_ghost            -
 -                     53                                   C_ghost            -
 -                     54                                   C_ghost            -
 -                     55                                   C_ghost            -
 -                     56                                   C_ghost            -
 -                     57                                   C_ghost            -
 -                     58                                   C_ghost            -
 -                     59                                   C_ghost            -
 -                     60                                   C_ghost            -
 -                     61                                   C_ghost            -
 -                     62                                   C_ghost            -
 -                     63                                   C_ghost            -
 -                     64                                   C_ghost            -
 -                     65                                   C_ghost            -
 -                     66                                   C_ghost            -
 -                     67                                   C_ghost            -
 -                     68                                   C_ghost            -
 -                     69                                   C_ghost            -
 -                     70                                   C_ghost            -
 -                     71                                   C_ghost            -
 -                     72                                   C_ghost            -
 -                     73                                   C_ghost            -
 -                     74                                   C_ghost            -
 -                     75                                   C_ghost            -
 -                     76                                   C_ghost            -
 -                     77                                   C_ghost            -
 -                     78                                   C_ghost            -
 -                     79                                   C_ghost            -
 -                     80                                   C_ghost            -
 -                     81                                   C_ghost            -
 -                     82                                   C_ghost            -
 -                     83                                   C_ghost            -
 -                     84                                   C_ghost            -
 -                     85                                   C_ghost            -
 -                     86                                   C_ghost            -
 -                     87                                   C_ghost            -
 -                     88                                   C_ghost            -
 -                     89                                   C_ghost            -
 -                     90                                   C_ghost            -
 -                     91                                   C_ghost            -
 -                     92                                   C_ghost            -
 -                     93                                   C_ghost            -
 -                     94                                   C_ghost            -
 -                     95                                   C_ghost            -
 -                     96                                   C_ghost            -
 -                     97                                   C_ghost            -
 -                     98                                   C_ghost            -
 -                     99                                   C_ghost            -
 -                    100                                   C_ghost            -
 -                    101                                   C_ghost            -
 -                    102                                   C_ghost            -
 -                    103                                   C_ghost            -
 -                    104                                   C_ghost            -
 -                    105                                   C_ghost            -
 -                    106                                   C_ghost            -
 -                    107                                   C_ghost            -
 -                    108                                   C_ghost            -
 -                    109                                   C_ghost            -
 -                    110                                   C_ghost            -
 -                    111                                   C_ghost            -
 -                    112                                   C_ghost            -
 -                    113                                   H_ghost            -
 -                    114                                   H_ghost            -
 -                    115                                   H_ghost            -
 -                    116                                   H_ghost            -
 -                    117                                   H_ghost            -
 -                    118                                   H_ghost            -
 -                    119                                   H_ghost            -
 -                    120                                   H_ghost            -
 -                    121                                   H_ghost            -
 -                    122                                   H_ghost            -
 -                    123                                   H_ghost            -
 -                    124                                   H_ghost            -
 -                    125                                   H_ghost            -
 -                    126                                   H_ghost            -
 -                    127                                   H_ghost            -
 -                    128                                   H_ghost            -
 -                    129                                   Na                 -
 -------------------------------------------------------------------------------

 *******************************************************************************
 *******************************************************************************
 **                                                                           **
 **     #####                         ##              ##                      **
 **    ##   ##            ##          ##              ##                      **
 **   ##     ##                       ##            ######                    **
 **   ##     ##  ##   ##  ##   #####  ##  ##   ####   ##    #####    #####    **
 **   ##     ##  ##   ##  ##  ##      ## ##   ##      ##   ##   ##  ##   ##   **
 **   ##  ## ##  ##   ##  ##  ##      ####     ###    ##   ######   ######    **
 **    ##  ###   ##   ##  ##  ##      ## ##      ##   ##   ##       ##        **
 **     #######   #####   ##   #####  ##  ##  ####    ##    #####   ##        **
 **           ##                                                    ##        **
 **                                                                           **
 **                                                ... make the atoms dance   **
 **                                                                           **
 **            Copyright (C) by CP2K developers group (2000 - 2018)           **
 **                                                                           **
 *******************************************************************************


 TOTAL NUMBERS AND MAXIMUM NUMBERS

  Total number of            - Atomic kinds:                                   3
                             - Atoms:                                        129
                             - Shell sets:                                   129
                             - Shells:                                       613
                             - Primitive Cartesian functions:                647
                             - Cartesian basis functions:                   1657
                             - Spherical basis functions:                   1545

  Maximum angular momentum of- Orbital basis functions:                        2
                             - Local part of the GTH pseudopotential:          2
                             - Non-local part of the GTH pseudopotential:      1


 SCF PARAMETERS         Density guess:                                    ATOMIC
                        --------------------------------------------------------
                        max_scf:                                             400
                        max_scf_history:                                       0
                        max_diis:                                              4
                        --------------------------------------------------------
                        eps_scf:                                        3.00E-07
                        eps_scf_history:                                0.00E+00
                        eps_diis:                                       1.00E-01
                        eps_eigval:                                     1.00E-05
                        --------------------------------------------------------
                        level_shift [a.u.]:                                 0.00
                        added MOs                                       100  100
                        --------------------------------------------------------
                        Mixing method:                            BROYDEN_MIXING
                                                charge density mixing in g-space
                        --------------------------------------------------------
                        Smear method:                                FERMI_DIRAC
                        Electronic temperature [K]:                        300.0
                        Electronic temperature [a.u.]:                  9.50E-04
                        Accuracy threshold:                             1.00E-10
                        --------------------------------------------------------
                        Outer loop SCF in use 
                        No variables optimised in outer loop
                        eps_scf                                         1.00E-06
                        max_scf                                              100
                        DIIS optimization
                        DIIS buffer length                                     3
                        step_size                                       5.00E-01

 Spin 1

 Number of electrons:                                                          5
 Number of occupied orbitals:                                                  5
 Number of molecular orbitals:                                               105

 Spin 2

 Number of electrons:                                                          4
 Number of occupied orbitals:                                                  4
 Number of molecular orbitals:                                               104

 Number of orbital functions:                                               1545
 Number of independent orbital functions:                                   1545

 Extrapolation method: initial_guess


 SCF WAVEFUNCTION OPTIMIZATION

  Step     Update method      Time    Convergence         Total energy    Change
  ------------------------------------------------------------------------------
     1 NoMix/Diag. 0.10E+00    3.1     0.36162911       -47.1683890720 -4.72E+01
     2 Broy./Diag. 0.10E+00    6.6     0.01261022       -47.1477600246  2.06E-02
     3 Broy./Diag. 0.10E+00    5.9     0.07745756       -47.1698675581 -2.21E-02
     4 Broy./Diag. 0.10E+00    6.7     0.00102819       -47.1533014554  1.66E-02
     5 Broy./Diag. 0.10E+00    6.5     0.01060989       -47.1624586748 -9.16E-03
     6 Broy./Diag. 0.10E+00    7.2     0.00284117       -47.1604063112  2.05E-03
     7 Broy./Diag. 0.10E+00    6.3     0.00999695       -47.1589832470  1.42E-03
     8 Broy./Diag. 0.10E+00    7.3     0.00333787       -47.1737593784 -1.48E-02
     9 Broy./Diag. 0.10E+00    6.7     0.00215822       -47.1757699905 -2.01E-03
    10 Broy./Diag. 0.10E+00    7.9     0.00629544       -47.1750592235  7.11E-04
    11 Broy./Diag. 0.10E+00    6.6     0.00227919       -47.1854676495 -1.04E-02
    12 Broy./Diag. 0.10E+00    7.9     0.00449713       -47.1771600272  8.31E-03
    13 Broy./Diag. 0.10E+00    6.7     0.00130928       -47.1752230984  1.94E-03
    14 Broy./Diag. 0.10E+00    7.6     0.00045125       -47.1763118386 -1.09E-03
    15 Broy./Diag. 0.10E+00    7.1     0.00086527       -47.1739316417  2.38E-03
    16 Broy./Diag. 0.10E+00    7.3     0.00046192       -47.1733199732  6.12E-04
    17 Broy./Diag. 0.10E+00    7.1     0.00067234       -47.1739532589 -6.33E-04
    18 Broy./Diag. 0.10E+00    7.4     0.00015052       -47.1718113839  2.14E-03
    19 Broy./Diag. 0.10E+00    7.7     0.00051768       -47.1810386606 -9.23E-03
    20 Broy./Diag. 0.10E+00    7.0     0.00018615       -47.1857235357 -4.68E-03
    21 Broy./Diag. 0.10E+00    7.8     0.00022500       -47.1806010950  5.12E-03
    22 Broy./Diag. 0.10E+00    7.0     0.00021810       -47.1747094844  5.89E-03
    23 Broy./Diag. 0.10E+00    7.5     0.00016452       -47.1727572883  1.95E-03
    24 Broy./Diag. 0.10E+00    7.3     0.00014601       -47.1745388706 -1.78E-03
    25 Broy./Diag. 0.10E+00    7.5     0.00014462       -47.1771076710 -2.57E-03
    26 Broy./Diag. 0.10E+00    7.7     0.00012675       -47.1744368181  2.67E-03
    27 Broy./Diag. 0.10E+00    6.9     0.00015299       -47.1685397204  5.90E-03
    28 Broy./Diag. 0.10E+00    7.9     0.00009440       -47.1682889491  2.51E-04
    29 Broy./Diag. 0.10E+00    6.6     0.00043226       -47.1635536449  4.74E-03
    30 Broy./Diag. 0.10E+00    7.7     0.00008589       -47.1616529579  1.90E-03
    31 Broy./Diag. 0.10E+00    6.6     0.00028109       -47.1586272567  3.03E-03
    32 Broy./Diag. 0.10E+00    7.9     0.00008750       -47.1605963150 -1.97E-03
    33 Broy./Diag. 0.10E+00    7.1     0.00004926       -47.1606936681 -9.74E-05
    34 Broy./Diag. 0.10E+00    7.5     0.00005083       -47.1596087776  1.08E-03
    35 Broy./Diag. 0.10E+00    7.3     0.00005114       -47.1595141057  9.47E-05
    36 Broy./Diag. 0.10E+00    7.5     0.00007260       -47.1597848706 -2.71E-04
    37 Broy./Diag. 0.10E+00    7.7     0.00003346       -47.1595392646  2.46E-04
    38 Broy./Diag. 0.10E+00    7.1     0.00003962       -47.1595238248  1.54E-05
    39 Broy./Diag. 0.10E+00    7.5     0.00004863       -47.1594239259  9.99E-05
    40 Broy./Diag. 0.10E+00    7.0     0.00002670       -47.1593781425  4.58E-05
    41 Broy./Diag. 0.10E+00    7.7     0.00004326       -47.1594329563 -5.48E-05
    42 Broy./Diag. 0.10E+00    7.3     0.00002470       -47.1594749390 -4.20E-05
    43 Broy./Diag. 0.10E+00    7.6     0.00001424       -47.1594961433 -2.12E-05
    44 Broy./Diag. 0.10E+00    7.2     0.00000882       -47.1594032965  9.28E-05
    45 Broy./Diag. 0.10E+00    7.0     0.00001060       -47.1592116550  1.92E-04
    46 Broy./Diag. 0.10E+00    7.1     0.00000910       -47.1593137890 -1.02E-04
    47 Broy./Diag. 0.10E+00    7.0     0.00000489       -47.1593920385 -7.82E-05
    48 Broy./Diag. 0.10E+00    7.4     0.00001423       -47.1593770901  1.49E-05
    49 Broy./Diag. 0.10E+00    7.1     0.00000839       -47.1593981054 -2.10E-05
    50 Broy./Diag. 0.10E+00    7.7     0.00000693       -47.1593679124  3.02E-05
    51 Broy./Diag. 0.10E+00    6.7     0.00000334       -47.1593735859 -5.67E-06
    52 Broy./Diag. 0.10E+00    7.9     0.00001286       -47.1593824538 -8.87E-06
    53 Broy./Diag. 0.10E+00    7.6     0.00000575       -47.1593764092  6.04E-06
    54 Broy./Diag. 0.10E+00    7.7     0.00001380       -47.1593547226  2.17E-05
    55 Broy./Diag. 0.10E+00    7.4     0.00001625       -47.1593701250 -1.54E-05
    56 Broy./Diag. 0.10E+00    7.4     0.00000561       -47.1593572603  1.29E-05
    57 Broy./Diag. 0.10E+00    7.8     0.00000968       -47.1593332576  2.40E-05
    58 Broy./Diag. 0.10E+00    6.8     0.00000468       -47.1593786705 -4.54E-05
    59 Broy./Diag. 0.10E+00    7.9     0.00000394       -47.1593709624  7.71E-06
    60 Broy./Diag. 0.10E+00    7.2     0.00000392       -47.1593795922 -8.63E-06
    61 Broy./Diag. 0.10E+00    7.3     0.00000596       -47.1593923296 -1.27E-05
    62 Broy./Diag. 0.10E+00    5.4     0.00000468       -47.1594162036 -2.39E-05
    63 Broy./Diag. 0.10E+00    5.6     0.00000494       -47.1594321552 -1.60E-05
    64 Broy./Diag. 0.10E+00    5.9     0.00000838       -47.1594504393 -1.83E-05
    65 Broy./Diag. 0.10E+00    5.0     0.00000201       -47.1594591300 -8.69E-06
    66 Broy./Diag. 0.10E+00    5.9     0.00000436       -47.1594433964  1.57E-05
    67 Broy./Diag. 0.10E+00    5.2     0.00000737       -47.1594454562 -2.06E-06
    68 Broy./Diag. 0.10E+00    5.5     0.00000334       -47.1594636191 -1.82E-05
    69 Broy./Diag. 0.10E+00    5.6     0.00000541       -47.1594798653 -1.62E-05
    70 Broy./Diag. 0.10E+00    5.3     0.00000474       -47.1595147696 -3.49E-05
    71 Broy./Diag. 0.10E+00    5.9     0.00000380       -47.1595200035 -5.23E-06
    72 Broy./Diag. 0.10E+00    4.9     0.00000349       -47.1594733111  4.67E-05
    73 Broy./Diag. 0.10E+00    5.8     0.00000262       -47.1594546870  1.86E-05
    74 Broy./Diag. 0.10E+00    5.3     0.00000276       -47.1594285467  2.61E-05
    75 Broy./Diag. 0.10E+00    5.5     0.00000299       -47.1594207545  7.79E-06
    76 Broy./Diag. 0.10E+00    5.6     0.00000719       -47.1593672016  5.36E-05
    77 Broy./Diag. 0.10E+00    5.3     0.00000177       -47.1593662389  9.63E-07
    78 Broy./Diag. 0.10E+00    5.9     0.00000299       -47.1593578554  8.38E-06
    79 Broy./Diag. 0.10E+00    4.9     0.00000180       -47.1593593316 -1.48E-06
    80 Broy./Diag. 0.10E+00    5.8     0.00000318       -47.1593491464  1.02E-05
    81 Broy./Diag. 0.10E+00    5.2     0.00000196       -47.1593485344  6.12E-07
    82 Broy./Diag. 0.10E+00    5.5     0.00000101       -47.1593547022 -6.17E-06
    83 Broy./Diag. 0.10E+00    5.6     0.00000218       -47.1593540417  6.60E-07
    84 Broy./Diag. 0.10E+00    5.4     0.00000166       -47.1593521611  1.88E-06
    85 Broy./Diag. 0.10E+00    6.0     0.00000083       -47.1593511693  9.92E-07
    86 Broy./Diag. 0.10E+00    4.9     0.00000117       -47.1593524426 -1.27E-06
    87 Broy./Diag. 0.10E+00    5.8     0.00000076       -47.1593529556 -5.13E-07
    88 Broy./Diag. 0.10E+00    5.1     0.00000065       -47.1593521192  8.36E-07
    89 Broy./Diag. 0.10E+00    5.5     0.00000094       -47.1593509667  1.15E-06
    90 Broy./Diag. 0.10E+00    5.6     0.00000039       -47.1593508728  9.39E-08
    91 Broy./Diag. 0.10E+00    5.3     0.00000062       -47.1593512664 -3.94E-07
    92 Broy./Diag. 0.10E+00    5.9     0.00000043       -47.1593514475 -1.81E-07
    93 Broy./Diag. 0.10E+00    4.9     0.00000041       -47.1593515523 -1.05E-07
    94 Broy./Diag. 0.10E+00    5.9     0.00000040       -47.1593513279  2.24E-07
    95 Broy./Diag. 0.10E+00    5.2     0.00000044       -47.1593511133  2.15E-07
    96 Broy./Diag. 0.10E+00    5.5     0.00000030       -47.1593521393 -1.03E-06
    97 Broy./Diag. 0.10E+00    5.6     0.00000086       -47.1593511773  9.62E-07
    98 Broy./Diag. 0.10E+00    5.3     0.00000061       -47.1593520792 -9.02E-07
    99 Broy./Diag. 0.10E+00    5.9     0.00000056       -47.1593541558 -2.08E-06
   100 Broy./Diag. 0.10E+00    4.9     0.00000093       -47.1593535239  6.32E-07
   101 Broy./Diag. 0.10E+00    5.9     0.00000014       -47.1593526464  8.78E-07

  *** SCF run converged in   101 steps ***


  Electronic density on regular grids:         -9.0001228222       -0.0001228222
  Core density on regular grids:                9.0000000000       -0.0000000000
  Total charge density on r-space grids:       -0.0001228222
  Total charge density g-space grids:          -0.0001228222

  Overlap energy of the core charge distribution:               0.00000000000000
  Self energy of the core charge distribution:                -96.60649019442629
  Core Hamiltonian energy:                                     29.74216236977090
  Hartree energy:                                              26.74705310712189
  Exchange-correlation energy:                                 -7.04207662223955
  Dispersion energy:                                           -0.00000130538029
  Electronic entropic energy:                                  -0.00000000123315
  Fermi energy:                                                -0.08552419555410

  Total energy:                                               -47.15935264637444

  outer SCF iter =    1 RMS gradient =   0.14E-06 energy =        -47.1593526464
  outer SCF loop converged in   1 iterations or  101 steps


  Integrated absolute spin density  :                               1.0000166475
  WARNING: S**2 computation does not yet treat fractional occupied orbitals

 *** WARNING in qs_loc_utils.F:1387 :: User requested the calculation of ***
 *** the localized wavefunction but the section LOCALIZE was not         ***
 *** specified. Localization will not be performed!                      ***


 -------------------------------------------------------------------------------
 -                                                                             -
 -  BSSE CALCULATION         FRAGMENT CONF: 11        FRAGMENT SUBCONF: 11     -
 -                           CHARGE =     0           MULTIPLICITY =     0     -
 -                                                                             -
 -                 ATOM INDEX                              ATOM NAME           -
 -                 ----------                              ---------           -
 -                      1                                   C                  -
 -                      2                                   C                  -
 -                      3                                   C                  -
 -                      4                                   C                  -
 -                      5                                   C                  -
 -                      6                                   C                  -
 -                      7                                   C                  -
 -                      8                                   C                  -
 -                      9                                   C                  -
 -                     10                                   C                  -
 -                     11                                   C                  -
 -                     12                                   C                  -
 -                     13                                   C                  -
 -                     14                                   C                  -
 -                     15                                   C                  -
 -                     16                                   C                  -
 -                     17                                   C                  -
 -                     18                                   C                  -
 -                     19                                   C                  -
 -                     20                                   C                  -
 -                     21                                   C                  -
 -                     22                                   C                  -
 -                     23                                   C                  -
 -                     24                                   C                  -
 -                     25                                   C                  -
 -                     26                                   C                  -
 -                     27                                   C                  -
 -                     28                                   C                  -
 -                     29                                   C                  -
 -                     30                                   C                  -
 -                     31                                   C                  -
 -                     32                                   C                  -
 -                     33                                   C                  -
 -                     34                                   C                  -
 -                     35                                   C                  -
 -                     36                                   C                  -
 -                     37                                   C                  -
 -                     38                                   C                  -
 -                     39                                   C                  -
 -                     40                                   C                  -
 -                     41                                   C                  -
 -                     42                                   C                  -
 -                     43                                   C                  -
 -                     44                                   C                  -
 -                     45                                   C                  -
 -                     46                                   C                  -
 -                     47                                   C                  -
 -                     48                                   C                  -
 -                     49                                   C                  -
 -                     50                                   C                  -
 -                     51                                   C                  -
 -                     52                                   C                  -
 -                     53                                   C                  -
 -                     54                                   C                  -
 -                     55                                   C                  -
 -                     56                                   C                  -
 -                     57                                   C                  -
 -                     58                                   C                  -
 -                     59                                   C                  -
 -                     60                                   C                  -
 -                     61                                   C                  -
 -                     62                                   C                  -
 -                     63                                   C                  -
 -                     64                                   C                  -
 -                     65                                   C                  -
 -                     66                                   C                  -
 -                     67                                   C                  -
 -                     68                                   C                  -
 -                     69                                   C                  -
 -                     70                                   C                  -
 -                     71                                   C                  -
 -                     72                                   C                  -
 -                     73                                   C                  -
 -                     74                                   C                  -
 -                     75                                   C                  -
 -                     76                                   C                  -
 -                     77                                   C                  -
 -                     78                                   C                  -
 -                     79                                   C                  -
 -                     80                                   C                  -
 -                     81                                   C                  -
 -                     82                                   C                  -
 -                     83                                   C                  -
 -                     84                                   C                  -
 -                     85                                   C                  -
 -                     86                                   C                  -
 -                     87                                   C                  -
 -                     88                                   C                  -
 -                     89                                   C                  -
 -                     90                                   C                  -
 -                     91                                   C                  -
 -                     92                                   C                  -
 -                     93                                   C                  -
 -                     94                                   C                  -
 -                     95                                   C                  -
 -                     96                                   C                  -
 -                     97                                   C                  -
 -                     98                                   C                  -
 -                     99                                   C                  -
 -                    100                                   C                  -
 -                    101                                   C                  -
 -                    102                                   C                  -
 -                    103                                   C                  -
 -                    104                                   C                  -
 -                    105                                   C                  -
 -                    106                                   C                  -
 -                    107                                   C                  -
 -                    108                                   C                  -
 -                    109                                   C                  -
 -                    110                                   C                  -
 -                    111                                   C                  -
 -                    112                                   C                  -
 -                    113                                   H                  -
 -                    114                                   H                  -
 -                    115                                   H                  -
 -                    116                                   H                  -
 -                    117                                   H                  -
 -                    118                                   H                  -
 -                    119                                   H                  -
 -                    120                                   H                  -
 -                    121                                   H                  -
 -                    122                                   H                  -
 -                    123                                   H                  -
 -                    124                                   H                  -
 -                    125                                   H                  -
 -                    126                                   H                  -
 -                    127                                   H                  -
 -                    128                                   H                  -
 -                    129                                   Na                 -
 -------------------------------------------------------------------------------

 *******************************************************************************
 *******************************************************************************
 **                                                                           **
 **     #####                         ##              ##                      **
 **    ##   ##            ##          ##              ##                      **
 **   ##     ##                       ##            ######                    **
 **   ##     ##  ##   ##  ##   #####  ##  ##   ####   ##    #####    #####    **
 **   ##     ##  ##   ##  ##  ##      ## ##   ##      ##   ##   ##  ##   ##   **
 **   ##  ## ##  ##   ##  ##  ##      ####     ###    ##   ######   ######    **
 **    ##  ###   ##   ##  ##  ##      ## ##      ##   ##   ##       ##        **
 **     #######   #####   ##   #####  ##  ##  ####    ##    #####   ##        **
 **           ##                                                    ##        **
 **                                                                           **
 **                                                ... make the atoms dance   **
 **                                                                           **
 **            Copyright (C) by CP2K developers group (2000 - 2018)           **
 **                                                                           **
 *******************************************************************************


 TOTAL NUMBERS AND MAXIMUM NUMBERS

  Total number of            - Atomic kinds:                                   3
                             - Atoms:                                        129
                             - Shell sets:                                   129
                             - Shells:                                       613
                             - Primitive Cartesian functions:                647
                             - Cartesian basis functions:                   1657
                             - Spherical basis functions:                   1545

  Maximum angular momentum of- Orbital basis functions:                        2
                             - Local part of the GTH pseudopotential:          2
                             - Non-local part of the GTH pseudopotential:      1


 SCF PARAMETERS         Density guess:                                    ATOMIC
                        --------------------------------------------------------
                        max_scf:                                             400
                        max_scf_history:                                       0
                        max_diis:                                              4
                        --------------------------------------------------------
                        eps_scf:                                        3.00E-07
                        eps_scf_history:                                0.00E+00
                        eps_diis:                                       1.00E-01
                        eps_eigval:                                     1.00E-05
                        --------------------------------------------------------
                        level_shift [a.u.]:                                 0.00
                        added MOs                                       100  100
                        --------------------------------------------------------
                        Mixing method:                            BROYDEN_MIXING
                                                charge density mixing in g-space
                        --------------------------------------------------------
                        Smear method:                                FERMI_DIRAC
                        Electronic temperature [K]:                        300.0
                        Electronic temperature [a.u.]:                  9.50E-04
                        Accuracy threshold:                             1.00E-10
                        --------------------------------------------------------
                        Outer loop SCF in use 
                        No variables optimised in outer loop
                        eps_scf                                         1.00E-06
                        max_scf                                              100
                        DIIS optimization
                        DIIS buffer length                                     3
                        step_size                                       5.00E-01

 Spin 1

 Number of electrons:                                                        237
 Number of occupied orbitals:                                                237
 Number of molecular orbitals:                                               337

 Spin 2

 Number of electrons:                                                        236
 Number of occupied orbitals:                                                236
 Number of molecular orbitals:                                               336

 Number of orbital functions:                                               1545
 Number of independent orbital functions:                                   1545

 Extrapolation method: initial_guess


 SCF WAVEFUNCTION OPTIMIZATION

  Step     Update method      Time    Convergence         Total energy    Change
  ------------------------------------------------------------------------------
     1 NoMix/Diag. 0.10E+00    2.9     0.50244158      -683.6309951167 -6.84E+02
     2 Broy./Diag. 0.10E+00    4.6     0.04431816      -656.3542491547  2.73E+01
     3 Broy./Diag. 0.10E+00    5.1     7.58084369      -672.5963428757 -1.62E+01
     4 Broy./Diag. 0.10E+00    4.6     7.58080893      -646.2810799784  2.63E+01
     5 Broy./Diag. 0.10E+00    5.3     6.96233948      -683.9989988056 -3.77E+01
     6 Broy./Diag. 0.10E+00    4.7     6.96233773      -666.1515671673  1.78E+01
     7 Broy./Diag. 0.10E+00    5.5     0.06340828      -687.0336606788 -2.09E+01
     8 Broy./Diag. 0.10E+00    4.9     7.49655368      -688.1209411429 -1.09E+00
     9 Broy./Diag. 0.10E+00    5.8     7.49654788      -676.3827997252  1.17E+01
    10 Broy./Diag. 0.10E+00    5.3     7.61392136      -688.5885950316 -1.22E+01
    11 Broy./Diag. 0.10E+00    5.7     7.61693975      -644.2143863769  4.44E+01
    12 Broy./Diag. 0.10E+00    5.7     7.65804035      -688.8876179315 -4.47E+01
    13 Broy./Diag. 0.10E+00    5.2     7.65803957      -622.7196951848  6.62E+01
    14 Broy./Diag. 0.10E+00    5.8     0.00576168      -689.0929530644 -6.64E+01
    15 Broy./Diag. 0.10E+00    5.1     0.02960274      -689.5036632953 -4.11E-01
    16 Broy./Diag. 0.10E+00    5.8     0.01350295      -690.2668446324 -7.63E-01
    17 Broy./Diag. 0.10E+00    5.6     0.00864940      -690.4742359078 -2.07E-01
    18 Broy./Diag. 0.10E+00    5.7     0.01085808      -690.5398381716 -6.56E-02
    19 Broy./Diag. 0.10E+00    6.0     0.00571638      -690.5149325397  2.49E-02
    20 Broy./Diag. 0.10E+00    5.0     0.01290377      -690.4296113295  8.53E-02
    21 Broy./Diag. 0.10E+00    5.8     0.01110774      -690.4887130883 -5.91E-02
    22 Broy./Diag. 0.10E+00    5.3     0.29778000      -690.5459012069 -5.72E-02
    23 Broy./Diag. 0.10E+00    5.8     0.27156142      -691.1695780165 -6.24E-01
    24 Broy./Diag. 0.10E+00    5.7     0.02419037      -690.6792462490  4.90E-01
    25 Broy./Diag. 0.10E+00    5.2     0.03441795      -690.7152947553 -3.60E-02
    26 Broy./Diag. 0.10E+00    5.8     0.06795242      -690.7963800515 -8.11E-02
    27 Broy./Diag. 0.10E+00    5.0     0.00382591      -690.9158693096 -1.19E-01
    28 Broy./Diag. 0.10E+00    5.3     0.07481890      -690.8871065102  2.88E-02
    29 Broy./Diag. 0.10E+00    5.6     0.01844121      -690.7592360703  1.28E-01
    30 Broy./Diag. 0.10E+00    5.6     0.02406125      -690.7791938387 -2.00E-02
    31 Broy./Diag. 0.10E+00    5.3     0.00548340      -690.8092623505 -3.01E-02
    32 Broy./Diag. 0.10E+00    5.9     0.03045602      -690.7977625252  1.15E-02
    33 Broy./Diag. 0.10E+00    5.2     0.02475497      -690.7469683087  5.08E-02
    34 Broy./Diag. 0.10E+00    5.8     0.01450788      -690.7897595332 -4.28E-02
    35 Broy./Diag. 0.10E+00    5.3     0.00898800      -690.8260811456 -3.63E-02
    36 Broy./Diag. 0.10E+00    6.9     0.00126986      -690.8306981905 -4.62E-03
    37 Broy./Diag. 0.10E+00    6.9     0.00264744      -690.8478210577 -1.71E-02
[...]
    40 Broy./Diag. 0.10E+00    5.6     0.00381981      -690.8581777029 -3.08E-03
    41 Broy./Diag. 0.10E+00    5.4     0.00611966      -690.8677381905 -9.56E-03
    42 Broy./Diag. 0.10E+00    6.0     0.00256400      -690.8617227408  6.02E-03
    43 Broy./Diag. 0.10E+00    5.1     0.00241437      -690.8682642612 -6.54E-03
    44 Broy./Diag. 0.10E+00    6.5     0.00227259      -690.8724659595 -4.20E-03
    45 Broy./Diag. 0.10E+00    6.7     0.00123081      -690.8700732678  2.39E-03
    46 Broy./Diag. 0.10E+00    5.4     0.00340297      -690.8687689316  1.30E-03
    47 Broy./Diag. 0.10E+00    5.9     0.00209723      -690.8623148150  6.45E-03
    48 Broy./Diag. 0.10E+00    5.1     0.00047761      -690.8656815991 -3.37E-03
    49 Broy./Diag. 0.10E+00    5.7     0.00026997      -690.8652226220  4.59E-04
    50 Broy./Diag. 0.10E+00    5.4     0.00070698      -690.8645379574  6.85E-04
    51 Broy./Diag. 0.10E+00    5.8     0.00064058      -690.8639908848  5.47E-04
    52 Broy./Diag. 0.10E+00    6.0     0.00102164      -690.8644797932 -4.89E-04
    53 Broy./Diag. 0.10E+00    5.0     0.00034857      -690.8663030768 -1.82E-03
    54 Broy./Diag. 0.10E+00    5.8     0.00011984      -690.8657826405  5.20E-04
    55 Broy./Diag. 0.10E+00    5.3     0.00050428      -690.8659594555 -1.77E-04
    56 Broy./Diag. 0.10E+00    5.5     0.00033843      -690.8668788986 -9.19E-04
    57 Broy./Diag. 0.10E+00    5.9     0.00007575      -690.8668096455  6.93E-05
    58 Broy./Diag. 0.10E+00    5.8     0.00004631      -690.8670494071 -2.40E-04
    59 Broy./Diag. 0.10E+00    5.9     0.00008272      -690.8670387107  1.07E-05
    60 Broy./Diag. 0.10E+00    5.1     0.00046843      -690.8668019130  2.37E-04
    61 Broy./Diag. 0.10E+00    5.8     0.00047708      -690.8672736412 -4.72E-04
    62 Broy./Diag. 0.10E+00    5.6     0.00017296      -690.8666581526  6.15E-04
    63 Broy./Diag. 0.10E+00    5.7     0.00020777      -690.8668632841 -2.05E-04
    64 Broy./Diag. 0.10E+00    6.0     0.00036606      -690.8667167499  1.47E-04
    65 Broy./Diag. 0.10E+00    5.0     0.00019037      -690.8672223673 -5.06E-04
    66 Broy./Diag. 0.10E+00    5.9     0.00015834      -690.8670931362  1.29E-04
    67 Broy./Diag. 0.10E+00    5.3     0.00021740      -690.8672129627 -1.20E-04
    68 Broy./Diag. 0.10E+00    5.5     0.00020700      -690.8672611755 -4.82E-05
    69 Broy./Diag. 0.10E+00    5.5     0.00010279      -690.8669697295  2.91E-04
    70 Broy./Diag. 0.10E+00    5.3     0.00004715      -690.8667999563  1.70E-04
    71 Broy./Diag. 0.10E+00    6.0     0.00017544      -690.8668837137 -8.38E-05
    72 Broy./Diag. 0.10E+00    5.1     0.00003475      -690.8670814346 -1.98E-04
    73 Broy./Diag. 0.10E+00    5.9     0.00026450      -690.8671308442 -4.94E-05
    74 Broy./Diag. 0.10E+00    5.3     0.00018226      -690.8672801449 -1.49E-04
    75 Broy./Diag. 0.10E+00    5.7     0.00005046      -690.8669862645  2.94E-04
    76 Broy./Diag. 0.10E+00    5.8     0.00022536      -690.8670369214 -5.07E-05
    77 Broy./Diag. 0.10E+00    5.2     0.00014898      -690.8669137081  1.23E-04
    78 Broy./Diag. 0.10E+00    6.0     0.00039531      -690.8668841417  2.96E-05
    79 Broy./Diag. 0.10E+00    5.0     0.00026337      -690.8670914980 -2.07E-04
    80 Broy./Diag. 0.10E+00    5.8     0.00007292      -690.8669054258  1.86E-04
    81 Broy./Diag. 0.10E+00    5.5     0.00043293      -690.8670013737 -9.59E-05
    82 Broy./Diag. 0.10E+00    5.5     0.00006664      -690.8667901435  2.11E-04
    83 Broy./Diag. 0.10E+00    6.0     0.00023124      -690.8667784785  1.17E-05
    84 Broy./Diag. 0.10E+00    5.0     0.00186550      -690.8669584421 -1.80E-04
    85 Broy./Diag. 0.10E+00    5.8     0.00033650      -690.8677975109 -8.39E-04
    86 Broy./Diag. 0.10E+00    5.3     0.00061659      -690.8679904889 -1.93E-04
    87 Broy./Diag. 0.10E+00    5.6     0.00148143      -690.8677141169  2.76E-04
    88 Broy./Diag. 0.10E+00    5.5     0.00058866      -690.8682296058 -5.15E-04
    89 Broy./Diag. 0.10E+00    5.3     0.00038164      -690.8679979970  2.32E-04
    90 Broy./Diag. 0.10E+00    6.0     0.00023466      -690.8678329765  1.65E-04
    91 Broy./Diag. 0.10E+00    5.1     0.00207732      -690.8680813136 -2.48E-04
    92 Broy./Diag. 0.10E+00    5.9     0.00010198      -690.8671276247  9.54E-04
    93 Broy./Diag. 0.10E+00    5.3     0.00009370      -690.8670735625  5.41E-05
    94 Broy./Diag. 0.10E+00    5.7     0.00091303      -690.8670797617 -6.20E-06
    95 Broy./Diag. 0.10E+00    5.8     0.00099709      -690.8675481473 -4.68E-04
    96 Broy./Diag. 0.10E+00    5.2     0.00029858      -690.8679817679 -4.34E-04
    97 Broy./Diag. 0.10E+00    6.0     0.00166089      -690.8678702041  1.12E-04
    98 Broy./Diag. 0.10E+00    5.1     0.00046850      -690.8671600221  7.10E-04
    99 Broy./Diag. 0.10E+00    5.7     0.00049054      -690.8673116515 -1.52E-04
   100 Broy./Diag. 0.10E+00    5.5     0.00064644      -690.8675575547 -2.46E-04
   101 Broy./Diag. 0.10E+00    5.4     0.00062428      -690.8672684954  2.89E-04
   102 Broy./Diag. 0.10E+00    6.0     0.00011510      -690.8670391971  2.29E-04
   103 Broy./Diag. 0.10E+00    5.1     0.00033830      -690.8670906628 -5.15E-05
   104 Broy./Diag. 0.10E+00    5.9     0.00008267      -690.8668471953  2.43E-04
   105 Broy./Diag. 0.10E+00    5.3     0.00010421      -690.8668539293 -6.73E-06
   106 Broy./Diag. 0.10E+00    5.7     0.00102425      -690.8668705039 -1.66E-05
   107 Broy./Diag. 0.10E+00    5.8     0.00126899      -690.8673025883 -4.32E-04
   108 Broy./Diag. 0.10E+00    5.2     0.00005385      -690.8678330442 -5.30E-04
   109 Broy./Diag. 0.10E+00    6.0     0.00178002      -690.8679463445 -1.13E-04
   110 Broy./Diag. 0.10E+00    5.0     0.00114632      -690.8671468825  7.99E-04
   111 Broy./Diag. 0.10E+00    5.7     0.00047932      -690.8676686127 -5.22E-04
   112 Broy./Diag. 0.10E+00    5.5     0.00053128      -690.8674562859  2.12E-04
   113 Broy./Diag. 0.10E+00    5.6     0.00054579      -690.8672369204  2.19E-04
   114 Broy./Diag. 0.10E+00    6.0     0.00057879      -690.8670255424  2.11E-04
   115 Broy./Diag. 0.10E+00    5.1     0.00034666      -690.8672246119 -1.99E-04
   116 Broy./Diag. 0.10E+00    6.0     0.00005284      -690.8670877585  1.37E-04
   117 Broy./Diag. 0.10E+00    5.3     0.00099937      -690.8670849706  2.79E-06
   118 Broy./Diag. 0.10E+00    5.7     0.00063550      -690.8674662559 -3.81E-04
   119 Broy./Diag. 0.10E+00    5.8     0.00043256      -690.8672477316  2.19E-04
   120 Broy./Diag. 0.10E+00    5.2     0.00006609      -690.8674282366 -1.81E-04
   121 Broy./Diag. 0.10E+00    6.0     0.00011029      -690.8673483132  7.99E-05
   122 Broy./Diag. 0.10E+00    5.0     0.00064807      -690.8674312500 -8.29E-05
   123 Broy./Diag. 0.10E+00    5.7     0.00185560      -690.8671874146  2.44E-04
   124 Broy./Diag. 0.10E+00    5.5     0.00122101      -690.8678714127 -6.84E-04
   125 Broy./Diag. 0.10E+00    5.6     0.00042020      -690.8674469803  4.24E-04
   126 Broy./Diag. 0.10E+00    6.0     0.00028727      -690.8671888008  2.58E-04
   127 Broy./Diag. 0.10E+00    5.0     0.00084222      -690.8673425905 -1.54E-04
   128 Broy./Diag. 0.10E+00    5.8     0.00027655      -690.8670267359  3.16E-04
   129 Broy./Diag. 0.10E+00    5.3     0.00013763      -690.8671337519 -1.07E-04
   130 Broy./Diag. 0.10E+00    5.5     0.00004850      -690.8671247421  9.01E-06
   131 Broy./Diag. 0.10E+00    5.6     0.00016728      -690.8671108740  1.39E-05
   132 Broy./Diag. 0.10E+00    5.4     0.00014252      -690.8669906624  1.20E-04
   133 Broy./Diag. 0.10E+00    6.0     0.00017407      -690.8670821424 -9.15E-05
   134 Broy./Diag. 0.10E+00    5.3     0.00056681      -690.8671152402 -3.31E-05
   135 Broy./Diag. 0.10E+00    5.9     0.00231725      -690.8670003053  1.15E-04
   136 Broy./Diag. 0.10E+00    5.3     0.00048817      -690.8677838768 -7.84E-04
   137 Broy./Diag. 0.10E+00    5.5     0.00027659      -690.8675871530  1.97E-04
   138 Broy./Diag. 0.10E+00    5.9     0.00118415      -690.8678024599 -2.15E-04
   139 Broy./Diag. 0.10E+00    5.2     0.00007940      -690.8682172632 -4.15E-04
   140 Broy./Diag. 0.10E+00    6.0     0.00015302      -690.8682935512 -7.63E-05
   141 Broy./Diag. 0.10E+00    5.3     0.00006067      -690.8681824754  1.11E-04
   142 Broy./Diag. 0.10E+00    5.5     0.00049273      -690.8680882799  9.42E-05
   143 Broy./Diag. 0.10E+00    5.7     0.00113422      -690.8679676231  1.21E-04
   144 Broy./Diag. 0.10E+00    5.3     0.00260048      -690.8676522969  3.15E-04
   145 Broy./Diag. 0.10E+00    6.0     0.00233125      -690.8684697931 -8.17E-04
   146 Broy./Diag. 0.10E+00    5.2     0.00018227      -690.8676273621  8.42E-04
   147 Broy./Diag. 0.10E+00    5.9     0.00026793      -690.8677102110 -8.28E-05
   148 Broy./Diag. 0.10E+00    5.3     0.00197661      -690.8677828949 -7.27E-05
   149 Broy./Diag. 0.10E+00    5.5     0.00028157      -690.8671260336  6.57E-04
   150 Broy./Diag. 0.10E+00    5.8     0.00235527      -690.8668449059  2.81E-04
   151 Broy./Diag. 0.10E+00    5.2     0.00109141      -690.8679019493 -1.06E-03
   152 Broy./Diag. 0.10E+00    6.0     0.00046869      -690.8675338404  3.68E-04
   153 Broy./Diag. 0.10E+00    5.0     0.00160238      -690.8677401674 -2.06E-04
   154 Broy./Diag. 0.10E+00    5.7     0.00128360      -690.8681519213 -4.12E-04
   155 Broy./Diag. 0.10E+00    5.5     0.00047315      -690.8677400524  4.12E-04
   156 Broy./Diag. 0.10E+00    5.6     0.00004378      -690.8679277170 -1.88E-04
   157 Broy./Diag. 0.10E+00    6.0     0.00055927      -690.8679639884 -3.63E-05
   158 Broy./Diag. 0.10E+00    5.0     0.00130399      -690.8678000475  1.64E-04
   159 Broy./Diag. 0.10E+00    5.8     0.00002923      -690.8672688289  5.31E-04
   160 Broy./Diag. 0.10E+00    5.3     0.00026902      -690.8672290586  3.98E-05
   161 Broy./Diag. 0.10E+00    5.6     0.00037358      -690.8674299712 -2.01E-04
   162 Broy./Diag. 0.10E+00    5.6     0.00012230      -690.8671946347  2.35E-04
   163 Broy./Diag. 0.10E+00    5.3     0.00094527      -690.8671328845  6.18E-05
   164 Broy./Diag. 0.10E+00    5.9     0.00124012      -690.8674529432 -3.20E-04
   165 Broy./Diag. 0.10E+00    5.2     0.00003750      -690.8670350663  4.18E-04
   166 Broy./Diag. 0.10E+00    5.9     0.00049318      -690.8670213965  1.37E-05
   167 Broy./Diag. 0.10E+00    5.3     0.00014096      -690.8667897878  2.32E-04
   168 Broy./Diag. 0.10E+00   10.1     0.00006526      -690.8668980760 -1.08E-04
   169 Broy./Diag. 0.10E+00    8.3     0.00008975      -690.8669194397 -2.14E-05
   170 Broy./Diag. 0.10E+00    6.4     0.00056835      -690.8669604836 -4.10E-05
   171 Broy./Diag. 0.10E+00    5.7     0.00032375      -690.8671405825 -1.80E-04
   172 Broy./Diag. 0.10E+00    6.0     0.00010709      -690.8672357517 -9.52E-05
   173 Broy./Diag. 0.10E+00    5.0     0.00015666      -690.8672364411 -6.89E-07
   174 Broy./Diag. 0.10E+00    5.9     0.00040743      -690.8672898382 -5.34E-05
   175 Broy./Diag. 0.10E+00    5.3     0.00027236      -690.8675059626 -2.16E-04
   176 Broy./Diag. 0.10E+00    5.6     0.00129511      -690.8673783384  1.28E-04
   177 Broy./Diag. 0.10E+00    5.6     0.00009758      -690.8669019039  4.76E-04
   178 Broy./Diag. 0.10E+00    5.3     0.00179114      -690.8668055900  9.63E-05
   179 Broy./Diag. 0.10E+00    6.0     0.00106991      -690.8675195761 -7.14E-04
   180 Broy./Diag. 0.10E+00    5.1     0.00011540      -690.8678679390 -3.48E-04
   181 Broy./Diag. 0.10E+00    5.9     0.00022870      -690.8680425568 -1.75E-04
   182 Broy./Diag. 0.10E+00    5.3     0.00085046      -690.8678638647  1.79E-04
   183 Broy./Diag. 0.10E+00    5.7     0.00068616      -690.8677380548  1.26E-04
   184 Broy./Diag. 0.10E+00    5.8     0.00145187      -690.8679774223 -2.39E-04
   185 Broy./Diag. 0.10E+00    5.2     0.00115769      -690.8673412111  6.36E-04
   186 Broy./Diag. 0.10E+00    6.0     0.00018018      -690.8670106933  3.31E-04
   187 Broy./Diag. 0.10E+00    5.1     0.00006547      -690.8670376941 -2.70E-05
   188 Broy./Diag. 0.10E+00    5.7     0.00144454      -690.8671311265 -9.34E-05
   189 Broy./Diag. 0.10E+00    5.5     0.00164441      -690.8674205376 -2.89E-04
   190 Broy./Diag. 0.10E+00    5.6     0.00046966      -690.8682241461 -8.04E-04
   191 Broy./Diag. 0.10E+00    6.0     0.00141853      -690.8683914046 -1.67E-04
   192 Broy./Diag. 0.10E+00    5.0     0.00216561      -690.8679726258  4.19E-04
   193 Broy./Diag. 0.10E+00    5.8     0.00003852      -690.8687014624 -7.29E-04
   194 Broy./Diag. 0.10E+00    5.3     0.00208439      -690.8687070237 -5.56E-06
   195 Broy./Diag. 0.10E+00    5.5     0.00072881      -690.8679685678  7.38E-04
   196 Broy./Diag. 0.10E+00    5.6     0.00352272      -690.8681360576 -1.67E-04
   197 Broy./Diag. 0.10E+00    5.3     0.00030621      -690.8668342737  1.30E-03
   198 Broy./Diag. 0.10E+00    5.3     0.00132124      -690.8668526739 -1.84E-05
   199 Broy./Diag. 0.10E+00    5.9     0.00018890      -690.8672364851 -3.84E-04
   200 Broy./Diag. 0.10E+00    5.2     0.00135857      -690.8673418975 -1.05E-04
   201 Broy./Diag. 0.10E+00    5.6     0.00099704      -690.8677618562 -4.20E-04
   202 Broy./Diag. 0.10E+00    5.6     0.00086079      -690.8674892368  2.73E-04
   203 Broy./Diag. 0.10E+00    5.3     0.00115956      -690.8676413925 -1.52E-04
   204 Broy./Diag. 0.10E+00    6.0     0.00059873      -690.8673252821  3.16E-04
   205 Broy./Diag. 0.10E+00    5.2     0.00035064      -690.8675730167 -2.48E-04
   206 Broy./Diag. 0.10E+00    6.0     0.00180014      -690.8673907338  1.82E-04
   207 Broy./Diag. 0.10E+00    5.2     0.00036430      -690.8667039695  6.87E-04
   208 Broy./Diag. 0.10E+00    5.7     0.00012539      -690.8666511588  5.28E-05
   209 Broy./Diag. 0.10E+00    5.8     0.00018812      -690.8666665277 -1.54E-05
   210 Broy./Diag. 0.10E+00    5.2     0.00062284      -690.8667645362 -9.80E-05
   211 Broy./Diag. 0.10E+00    5.9     0.00292389      -690.8666545252  1.10E-04
   212 Broy./Diag. 0.10E+00    5.1     0.00070594      -690.8675309018 -8.76E-04
   213 Broy./Diag. 0.10E+00    5.7     0.00050330      -690.8674302061  1.01E-04
   214 Broy./Diag. 0.10E+00    5.5     0.00016813      -690.8675673875 -1.37E-04
   215 Broy./Diag. 0.10E+00    5.6     0.00027358      -690.8675196759  4.77E-05
   216 Broy./Diag. 0.10E+00    6.5     0.00257441      -690.8674969463  2.27E-05
   217 Broy./Diag. 0.10E+00    6.3     0.00071058      -690.8666191276  8.78E-04
   218 Broy./Diag. 0.10E+00    5.8     0.00021268      -690.8668103515 -1.91E-04
   219 Broy./Diag. 0.10E+00    5.6     0.00053802      -690.8666559832  1.54E-04
   220 Broy./Diag. 0.10E+00    5.4     0.00084240      -690.8668777180 -2.22E-04
   221 Broy./Diag. 0.10E+00    6.0     0.00196555      -690.8667256147  1.52E-04
   222 Broy./Diag. 0.10E+00    5.2     0.00084727      -690.8671887709 -4.63E-04
   223 Broy./Diag. 0.10E+00    5.9     0.00021149      -690.8671377623  5.10E-05
   224 Broy./Diag. 0.10E+00    6.4     0.00111709      -690.8669970913  1.41E-04
   225 Broy./Diag. 0.10E+00    5.4     0.00032350      -690.8667384047  2.59E-04
   226 Broy./Diag. 0.10E+00    5.8     0.00192529      -690.8665743389  1.64E-04
   227 Broy./Diag. 0.10E+00    5.3     0.00121609      -690.8672729007 -6.99E-04
   228 Broy./Diag. 0.10E+00    5.8     0.00025617      -690.8667267155  5.46E-04
   229 Broy./Diag. 0.10E+00    5.3     0.00090160      -690.8669017934 -1.75E-04
   230 Broy./Diag. 0.10E+00    5.5     0.00147206      -690.8671873690 -2.86E-04
   231 Broy./Diag. 0.10E+00    5.8     0.00129128      -690.8676843001 -4.97E-04
   232 Broy./Diag. 0.10E+00    5.2     0.00059020      -690.8673965556  2.88E-04
   233 Broy./Diag. 0.10E+00    6.0     0.00023858      -690.8673926186  3.94E-06
   234 Broy./Diag. 0.10E+00    5.1     0.00088226      -690.8675340601 -1.41E-04
   235 Broy./Diag. 0.10E+00    5.6     0.00049351      -690.8672423852  2.92E-04
   236 Broy./Diag. 0.10E+00    5.5     0.00151411      -690.8673419385 -9.96E-05
   237 Broy./Diag. 0.10E+00    5.6     0.00262503      -690.8680982540 -7.56E-04
   238 Broy./Diag. 0.10E+00    6.0     0.00019353      -690.8669488363  1.15E-03
   239 Broy./Diag. 0.10E+00    4.9     0.00013285      -690.8669609942 -1.22E-05
   240 Broy./Diag. 0.10E+00    5.8     0.00100118      -690.8670661068 -1.05E-04
   241 Broy./Diag. 0.10E+00    5.3     0.00017828      -690.8674670890 -4.01E-04
   242 Broy./Diag. 0.10E+00    5.6     0.00114640      -690.8675069538 -3.99E-05
   243 Broy./Diag. 0.10E+00    5.6     0.00023255      -690.8670223842  4.85E-04
   244 Broy./Diag. 0.10E+00    5.2     0.00061497      -690.8670374585 -1.51E-05
   245 Broy./Diag. 0.10E+00    5.9     0.00016065      -690.8669710876  6.64E-05
   246 Broy./Diag. 0.10E+00    5.2     0.00165110      -690.8668484827  1.23E-04
   247 Broy./Diag. 0.10E+00    5.9     0.00180804      -690.8673865741 -5.38E-04
   248 Broy./Diag. 0.10E+00    5.3     0.00004380      -690.8667747099  6.12E-04
   249 Broy./Diag. 0.10E+00    5.5     0.00005239      -690.8667733496  1.36E-06
   250 Broy./Diag. 0.10E+00    5.8     0.00004870      -690.8667460837  2.73E-05
   251 Broy./Diag. 0.10E+00    5.2     0.00043821      -690.8667175960  2.85E-05
   252 Broy./Diag. 0.10E+00    6.0     0.00013271      -690.8667876392 -7.00E-05
   253 Broy./Diag. 0.10E+00    5.1     0.00023712      -690.8668885703 -1.01E-04
   254 Broy./Diag. 0.10E+00    5.7     0.00058647      -690.8670159131 -1.27E-04
   255 Broy./Diag. 0.10E+00    5.5     0.00066702      -690.8671254553 -1.10E-04
   256 Broy./Diag. 0.10E+00    5.6     0.00153400      -690.8673645611 -2.39E-04
   257 Broy./Diag. 0.10E+00    5.9     0.00127395      -690.8667399080  6.25E-04
   258 Broy./Diag. 0.10E+00    5.0     0.00044471      -690.8673449668 -6.05E-04
   259 Broy./Diag. 0.10E+00    5.8     0.00290730      -690.8674930588 -1.48E-04
   260 Broy./Diag. 0.10E+00    5.3     0.00004724      -690.8664834279  1.01E-03
   261 Broy./Diag. 0.10E+00    5.7     0.00058256      -690.8665173489 -3.39E-05
   262 Broy./Diag. 0.10E+00    5.7     0.00109579      -690.8666989646 -1.82E-04
   263 Broy./Diag. 0.10E+00    5.3     0.00108101      -690.8663237624  3.75E-04
   264 Broy./Diag. 0.10E+00    5.9     0.00059853      -690.8659829649  3.41E-04
   265 Broy./Diag. 0.10E+00    5.1     0.00008424      -690.8661363396 -1.53E-04
   266 Broy./Diag. 0.10E+00    5.8     0.00076210      -690.8661111638  2.52E-05
   267 Broy./Diag. 0.10E+00    5.8     0.00030036      -690.8658295735  2.82E-04
   268 Broy./Diag. 0.10E+00    5.5     0.00034212      -690.8657575219  7.21E-05
   269 Broy./Diag. 0.10E+00    6.0     0.00033119      -690.8656127853  1.45E-04
   270 Broy./Diag. 0.10E+00    5.2     0.00057886      -690.8654794270  1.33E-04
   271 Broy./Diag. 0.10E+00    6.0     0.00021347      -690.8655755817 -9.62E-05
   272 Broy./Diag. 0.10E+00    5.3     0.00017981      -690.8654632804  1.12E-04
   273 Broy./Diag. 0.10E+00    5.7     0.00055983      -690.8655566965 -9.34E-05
   274 Broy./Diag. 0.10E+00    5.8     0.00181331      -690.8657426641 -1.86E-04
   275 Broy./Diag. 0.10E+00    5.2     0.00191955      -690.8663590187 -6.16E-04
   276 Broy./Diag. 0.10E+00    6.0     0.00297769      -690.8657730329  5.86E-04
   277 Broy./Diag. 0.10E+00    5.1     0.00030285      -690.8667197281 -9.47E-04
   278 Broy./Diag. 0.10E+00    5.7     0.00148224      -690.8666299597  8.98E-05
   279 Broy./Diag. 0.10E+00    5.5     0.00290810      -690.8660991014  5.31E-04
   280 Broy./Diag. 0.10E+00    5.6     0.00238732      -690.8673978971 -1.30E-03
   281 Broy./Diag. 0.10E+00    5.9     0.00024262      -690.8663662163  1.03E-03
   282 Broy./Diag. 0.10E+00    5.1     0.00073277      -690.8661882300  1.78E-04
-------------------------------------------------------
Primary job  terminated normally, but 1 process returned
a non-zero exit code. Per user-direction, the job has been aborted.
-------------------------------------------------------
