 DBCSR| Multiplication driver                                               XSMM
 DBCSR| Multrec recursion limit                                              512
 DBCSR| Multiplication stack size                                           1000
 DBCSR| Maximum elements for images                                    UNLIMITED
 DBCSR| Multiplicative factor virtual images                                   1
 DBCSR| Multiplication size stacks                                             3
 DBCSR| Number of 3D layers                                               SINGLE
 DBCSR| Use MPI memory allocation                                              T
 DBCSR| Use RMA algorithm                                                      F
 DBCSR| Use Communication thread                                               T
 DBCSR| Communication thread load                                             87


  **** **** ******  **  PROGRAM STARTED AT               2024-07-29 14:03:16.243
 ***** ** ***  *** **   PROGRAM STARTED ON                            sebnode048
 **    ****   ******    PROGRAM STARTED BY                                luehrs
 ***** **    ** ** **   PROGRAM PROCESS ID                                257220
  **** **  *******  **  PROGRAM STARTED IN /home/luehrs/PhD/Sodium_batteries/Sod
                                           ium-graphene-edge/Zig_zag_3/Hydrogen

 CP2K| version string:                    CP2K version 7.0 (Development Version)
 CP2K| source code revision number:                                             
 CP2K| cp2kflags: libint fftw3 libxc parallel mpi3 scalapack xsmm libderiv_max_a
 CP2K|            m1=8 libint_max_am=9 max_contr=4
 CP2K| is freely available from                            https://www.cp2k.org/
 CP2K| Program compiled at                         Sun Jun 24 14:37:16 CEST 2018
 CP2K| Program compiled on                                            sebstorage
 CP2K| Program compiled for                                Linux-x86-64-gfortran
 CP2K| Data directory path    /home/brehm/Software_Batchnode/2018/Source/cp2k_18
 CP2K| Input file name                                         input.zig-zag.inp

 GLOBAL| Force Environment number                                              1
 GLOBAL| Basis set file name                                      ./BASIS_MOLOPT
 GLOBAL| Potential file name                                    ./GTH_POTENTIALS
 GLOBAL| MM Potential file name                                     MM_POTENTIAL
 GLOBAL| Coordinate file name              graphene_hydrogen_zig-zag_relaxed.xyz
 GLOBAL| Method name                                                        CP2K
 GLOBAL| Project name                                      graphene_zig_zag_BSSE
 GLOBAL| Preferred FFT library                                             FFTW3
 GLOBAL| Preferred diagonalization lib.                                       SL
 GLOBAL| Run type                                                           BSSE
 GLOBAL| All-to-all communication in single precision                          F
 GLOBAL| FFTs using library dependent lengths                                  F
 GLOBAL| Global print level                                                  LOW
 GLOBAL| Total number of message passing processes                            16
 GLOBAL| Number of threads for this process                                    1
 GLOBAL| This output is from process                                           0
 GLOBAL| CPU model name :  Intel(R) Xeon(R) CPU E5-2630 v3 @ 2.40GHz

 MEMORY| system memory details [Kb]
 MEMORY|                        rank 0           min           max       average
 MEMORY| MemTotal             65833008      65833008      65833008      65833008
 MEMORY| MemFree               4046052       4045712       4046052       4045754
 MEMORY| Buffers                212972        212972        212972        212972
 MEMORY| Cached               13458752      13458708      13458752      13458713
 MEMORY| Slab                   669856        669856        669856        669856
 MEMORY| SReclaimable           382164        382164        382164        382164
 MEMORY| MemLikelyFree        18099940      18099556      18099940      18099604


 GENERATE|  Preliminary Number of Bonds generated:                             0
 GENERATE|  Achieved consistency in connectivity generation.

 *******************************************************************************
 *******************************************************************************
 **                                                                           **
 **     #####                         ##              ##                      **
 **    ##   ##            ##          ##              ##                      **
 **   ##     ##                       ##            ######                    **
 **   ##     ##  ##   ##  ##   #####  ##  ##   ####   ##    #####    #####    **
 **   ##     ##  ##   ##  ##  ##      ## ##   ##      ##   ##   ##  ##   ##   **
 **   ##  ## ##  ##   ##  ##  ##      ####     ###    ##   ######   ######    **
 **    ##  ###   ##   ##  ##  ##      ## ##      ##   ##   ##       ##        **
 **     #######   #####   ##   #####  ##  ##  ####    ##    #####   ##        **
 **           ##                                                    ##        **
 **                                                                           **
 **                                                ... make the atoms dance   **
 **                                                                           **
 **            Copyright (C) by CP2K developers group (2000 - 2018)           **
 **                                                                           **
 *******************************************************************************


 TOTAL NUMBERS AND MAXIMUM NUMBERS

  Total number of            - Atomic kinds:                                   3
                             - Atoms:                                        129
                             - Shell sets:                                   129
                             - Shells:                                       613
                             - Primitive Cartesian functions:                647
                             - Cartesian basis functions:                   1657
                             - Spherical basis functions:                   1545

  Maximum angular momentum of- Orbital basis functions:                        2
                             - Local part of the GTH pseudopotential:          2
                             - Non-local part of the GTH pseudopotential:      1


 SCF PARAMETERS         Density guess:                                    ATOMIC
                        --------------------------------------------------------
                        max_scf:                                             400
                        max_scf_history:                                       0
                        max_diis:                                              4
                        --------------------------------------------------------
                        eps_scf:                                        3.00E-07
                        eps_scf_history:                                0.00E+00
                        eps_diis:                                       1.00E-01
                        eps_eigval:                                     1.00E-05
                        --------------------------------------------------------
                        level_shift [a.u.]:                                 0.00
                        added MOs                                       100  100
                        --------------------------------------------------------
                        Mixing method:                            BROYDEN_MIXING
                                                charge density mixing in g-space
                        --------------------------------------------------------
                        Smear method:                                FERMI_DIRAC
                        Electronic temperature [K]:                        300.0
                        Electronic temperature [a.u.]:                  9.50E-04
                        Accuracy threshold:                             1.00E-10
                        --------------------------------------------------------
                        Outer loop SCF in use 
                        No variables optimised in outer loop
                        eps_scf                                         1.00E-06
                        max_scf                                              100
                        DIIS optimization
                        DIIS buffer length                                     3
                        step_size                                       5.00E-01

 -------------------------------------------------------------------------------
 -                                                                             -
 -  BSSE CALCULATION         FRAGMENT CONF: 10        FRAGMENT SUBCONF: 10     -
 -                           CHARGE =     0           MULTIPLICITY =     0     -
 -                                                                             -
 -                 ATOM INDEX                              ATOM NAME           -
 -                 ----------                              ---------           -
 -                      1                                   C                  -
 -                      2                                   C                  -
 -                      3                                   C                  -
 -                      4                                   C                  -
 -                      5                                   C                  -
 -                      6                                   C                  -
 -                      7                                   C                  -
 -                      8                                   C                  -
 -                      9                                   C                  -
 -                     10                                   C                  -
 -                     11                                   C                  -
 -                     12                                   C                  -
 -                     13                                   C                  -
 -                     14                                   C                  -
 -                     15                                   C                  -
 -                     16                                   C                  -
 -                     17                                   C                  -
 -                     18                                   C                  -
 -                     19                                   C                  -
 -                     20                                   C                  -
 -                     21                                   C                  -
 -                     22                                   C                  -
 -                     23                                   C                  -
 -                     24                                   C                  -
 -                     25                                   C                  -
 -                     26                                   C                  -
 -                     27                                   C                  -
 -                     28                                   C                  -
 -                     29                                   C                  -
 -                     30                                   C                  -
 -                     31                                   C                  -
 -                     32                                   C                  -
 -                     33                                   C                  -
 -                     34                                   C                  -
 -                     35                                   C                  -
 -                     36                                   C                  -
 -                     37                                   C                  -
 -                     38                                   C                  -
 -                     39                                   C                  -
 -                     40                                   C                  -
 -                     41                                   C                  -
 -                     42                                   C                  -
 -                     43                                   C                  -
 -                     44                                   C                  -
 -                     45                                   C                  -
 -                     46                                   C                  -
 -                     47                                   C                  -
 -                     48                                   C                  -
 -                     49                                   C                  -
 -                     50                                   C                  -
 -                     51                                   C                  -
 -                     52                                   C                  -
 -                     53                                   C                  -
 -                     54                                   C                  -
 -                     55                                   C                  -
 -                     56                                   C                  -
 -                     57                                   C                  -
 -                     58                                   C                  -
 -                     59                                   C                  -
 -                     60                                   C                  -
 -                     61                                   C                  -
 -                     62                                   C                  -
 -                     63                                   C                  -
 -                     64                                   C                  -
 -                     65                                   C                  -
 -                     66                                   C                  -
 -                     67                                   C                  -
 -                     68                                   C                  -
 -                     69                                   C                  -
 -                     70                                   C                  -
 -                     71                                   C                  -
 -                     72                                   C                  -
 -                     73                                   C                  -
 -                     74                                   C                  -
 -                     75                                   C                  -
 -                     76                                   C                  -
 -                     77                                   C                  -
 -                     78                                   C                  -
 -                     79                                   C                  -
 -                     80                                   C                  -
 -                     81                                   C                  -
 -                     82                                   C                  -
 -                     83                                   C                  -
 -                     84                                   C                  -
 -                     85                                   C                  -
 -                     86                                   C                  -
 -                     87                                   C                  -
 -                     88                                   C                  -
 -                     89                                   C                  -
 -                     90                                   C                  -
 -                     91                                   C                  -
 -                     92                                   C                  -
 -                     93                                   C                  -
 -                     94                                   C                  -
 -                     95                                   C                  -
 -                     96                                   C                  -
 -                     97                                   C                  -
 -                     98                                   C                  -
 -                     99                                   C                  -
 -                    100                                   C                  -
 -                    101                                   C                  -
 -                    102                                   C                  -
 -                    103                                   C                  -
 -                    104                                   C                  -
 -                    105                                   C                  -
 -                    106                                   C                  -
 -                    107                                   C                  -
 -                    108                                   C                  -
 -                    109                                   C                  -
 -                    110                                   C                  -
 -                    111                                   C                  -
 -                    112                                   C                  -
 -                    113                                   H                  -
 -                    114                                   H                  -
 -                    115                                   H                  -
 -                    116                                   H                  -
 -                    117                                   H                  -
 -                    118                                   H                  -
 -                    119                                   H                  -
 -                    120                                   H                  -
 -                    121                                   H                  -
 -                    122                                   H                  -
 -                    123                                   H                  -
 -                    124                                   H                  -
 -                    125                                   H                  -
 -                    126                                   H                  -
 -                    127                                   H                  -
 -                    128                                   H                  -
 -------------------------------------------------------------------------------

 *******************************************************************************
 *******************************************************************************
 **                                                                           **
 **     #####                         ##              ##                      **
 **    ##   ##            ##          ##              ##                      **
 **   ##     ##                       ##            ######                    **
 **   ##     ##  ##   ##  ##   #####  ##  ##   ####   ##    #####    #####    **
 **   ##     ##  ##   ##  ##  ##      ## ##   ##      ##   ##   ##  ##   ##   **
 **   ##  ## ##  ##   ##  ##  ##      ####     ###    ##   ######   ######    **
 **    ##  ###   ##   ##  ##  ##      ## ##      ##   ##   ##       ##        **
 **     #######   #####   ##   #####  ##  ##  ####    ##    #####   ##        **
 **           ##                                                    ##        **
 **                                                                           **
 **                                                ... make the atoms dance   **
 **                                                                           **
 **            Copyright (C) by CP2K developers group (2000 - 2018)           **
 **                                                                           **
 *******************************************************************************


 TOTAL NUMBERS AND MAXIMUM NUMBERS

  Total number of            - Atomic kinds:                                   2
                             - Atoms:                                        128
                             - Shell sets:                                   128
                             - Shells:                                       608
                             - Primitive Cartesian functions:                640
                             - Cartesian basis functions:                   1648
                             - Spherical basis functions:                   1536

  Maximum angular momentum of- Orbital basis functions:                        2
                             - Local part of the GTH pseudopotential:          2
                             - Non-local part of the GTH pseudopotential:      0


 SCF PARAMETERS         Density guess:                                    ATOMIC
                        --------------------------------------------------------
                        max_scf:                                             400
                        max_scf_history:                                       0
                        max_diis:                                              4
                        --------------------------------------------------------
                        eps_scf:                                        3.00E-07
                        eps_scf_history:                                0.00E+00
                        eps_diis:                                       1.00E-01
                        eps_eigval:                                     1.00E-05
                        --------------------------------------------------------
                        level_shift [a.u.]:                                 0.00
                        added MOs                                       100  100
                        --------------------------------------------------------
                        Mixing method:                            BROYDEN_MIXING
                                                charge density mixing in g-space
                        --------------------------------------------------------
                        Smear method:                                FERMI_DIRAC
                        Electronic temperature [K]:                        300.0
                        Electronic temperature [a.u.]:                  9.50E-04
                        Accuracy threshold:                             1.00E-10
                        --------------------------------------------------------
                        Outer loop SCF in use 
                        No variables optimised in outer loop
                        eps_scf                                         1.00E-06
                        max_scf                                              100
                        DIIS optimization
                        DIIS buffer length                                     3
                        step_size                                       5.00E-01

 Spin 1

 Number of electrons:                                                        232
 Number of occupied orbitals:                                                232
 Number of molecular orbitals:                                               332

 Spin 2

 Number of electrons:                                                        232
 Number of occupied orbitals:                                                232
 Number of molecular orbitals:                                               332

 Number of orbital functions:                                               1536
 Number of independent orbital functions:                                   1536

 Extrapolation method: initial_guess


 SCF WAVEFUNCTION OPTIMIZATION

  Step     Update method      Time    Convergence         Total energy    Change
  ------------------------------------------------------------------------------
     1 NoMix/Diag. 0.10E+00   36.4     0.45107924      -636.4164223400 -6.36E+02
     2 Broy./Diag. 0.10E+00    8.2     0.04873670      -609.9994693105  2.64E+01
     3 Broy./Diag. 0.10E+00    8.2     0.14140473      -624.0969567424 -1.41E+01
     4 Broy./Diag. 0.10E+00   13.5     7.62119335      -637.3963755174 -1.33E+01
     5 Broy./Diag. 0.10E+00   13.5     7.62114521      -616.9475589278  2.04E+01
     6 Broy./Diag. 0.10E+00   12.4     7.54112246      -641.0907562051 -2.41E+01
     7 Broy./Diag. 0.10E+00   14.4     7.54111881      -618.4411514006  2.26E+01
     8 Broy./Diag. 0.10E+00   14.7     7.68249005      -641.5206678669 -2.31E+01
     9 Broy./Diag. 0.10E+00   15.1     7.68249160      -594.9997450484  4.65E+01
    10 Broy./Diag. 0.10E+00   14.4     7.57648082      -641.6546162228 -4.67E+01
    11 Broy./Diag. 0.10E+00    9.3     7.57647843      -589.8107681594  5.18E+01
    12 Broy./Diag. 0.10E+00    9.1     7.61522502      -641.8228570110 -5.20E+01
    13 Broy./Diag. 0.10E+00    9.0     7.61522275      -575.0342693748  6.68E+01
    14 Broy./Diag. 0.10E+00    8.9     7.60277533      -641.7278766803 -6.67E+01
    15 Broy./Diag. 0.10E+00    8.9     7.60277180      -597.6183134687  4.41E+01
    16 Broy./Diag. 0.10E+00    8.9     7.59272190      -641.9446174832 -4.43E+01
    17 Broy./Diag. 0.10E+00    9.0     7.59741502      -597.6641652091  4.43E+01
    18 Broy./Diag. 0.10E+00    8.8     7.70982981      -642.0979848782 -4.44E+01
    19 Broy./Diag. 0.10E+00    8.8     7.70982870      -574.3153535022  6.78E+01
    20 Broy./Diag. 0.10E+00    8.7     0.00300300      -642.1854054698 -6.79E+01
    21 Broy./Diag. 0.10E+00    8.7     0.02383531      -642.2589091586 -7.35E-02
    22 Broy./Diag. 0.10E+00    8.7     0.00517044      -642.8486833868 -5.90E-01
    23 Broy./Diag. 0.10E+00    8.7     0.01810698      -642.9610710793 -1.12E-01
    24 Broy./Diag. 0.10E+00    8.7     0.00311364      -643.1868036583 -2.26E-01
    25 Broy./Diag. 0.10E+00    8.8     0.00256520      -643.2787093193 -9.19E-02
    26 Broy./Diag. 0.10E+00    8.7     0.00184785      -643.4568077295 -1.78E-01
    27 Broy./Diag. 0.10E+00    8.7     0.00301360      -643.5003262670 -4.35E-02
    28 Broy./Diag. 0.10E+00    8.7     0.00101410      -643.5908949424 -9.06E-02
    29 Broy./Diag. 0.10E+00    8.7     0.00386646      -643.5858138904  5.08E-03
    30 Broy./Diag. 0.10E+00    8.8     0.00038653      -643.6126731861 -2.69E-02
    31 Broy./Diag. 0.10E+00    8.8     0.00091120      -643.6175158852 -4.84E-03
    32 Broy./Diag. 0.10E+00    8.7     0.00091640      -643.6262069300 -8.69E-03
    33 Broy./Diag. 0.10E+00    8.7     0.00032100      -643.6269269295 -7.20E-04
    34 Broy./Diag. 0.10E+00    8.7     0.00052711      -643.6228665012  4.06E-03
    35 Broy./Diag. 0.10E+00    8.7     0.00045374      -643.6236289412 -7.62E-04
    36 Broy./Diag. 0.10E+00    8.7     0.00042065      -643.6393183470 -1.57E-02
    37 Broy./Diag. 0.10E+00    8.8     0.00054080      -643.6514835929 -1.22E-02
    38 Broy./Diag. 0.10E+00    8.8     0.00022828      -643.6588275094 -7.34E-03
    39 Broy./Diag. 0.10E+00    8.7     0.00041886      -643.6684755618 -9.65E-03
    40 Broy./Diag. 0.10E+00    8.7     0.00031930      -643.6751301217 -6.65E-03
    41 Broy./Diag. 0.10E+00    8.7     0.00019631      -643.6763425261 -1.21E-03
    42 Broy./Diag. 0.10E+00    8.7     0.00017540      -643.6770111076 -6.69E-04
    43 Broy./Diag. 0.10E+00    8.7     0.00007300      -643.6772532901 -2.42E-04
    44 Broy./Diag. 0.10E+00    8.7     0.00020299      -643.6778478823 -5.95E-04
    45 Broy./Diag. 0.10E+00    8.7     0.00003995      -643.6796348494 -1.79E-03
    46 Broy./Diag. 0.10E+00    8.7     0.00008751      -643.6783583107  1.28E-03
    47 Broy./Diag. 0.10E+00    8.7     0.00004613      -643.6768262779  1.53E-03
    48 Broy./Diag. 0.10E+00    8.7     0.00005655      -643.6762786236  5.48E-04
    49 Broy./Diag. 0.10E+00    8.8     0.00005344      -643.6759737287  3.05E-04
    50 Broy./Diag. 0.10E+00    8.7     0.00001882      -643.6753299275  6.44E-04
    51 Broy./Diag. 0.10E+00    8.7     0.00002703      -643.6744323596  8.98E-04
    52 Broy./Diag. 0.10E+00    8.8     0.00000836      -643.6743721921  6.02E-05
    53 Broy./Diag. 0.10E+00    8.7     0.00002023      -643.6749845982 -6.12E-04
    54 Broy./Diag. 0.10E+00    8.7     0.00000798      -643.6759237558 -9.39E-04
    55 Broy./Diag. 0.10E+00    8.7     0.00001445      -643.6767220823 -7.98E-04
    56 Broy./Diag. 0.10E+00    8.7     0.00000760      -643.6775969592 -8.75E-04
    57 Broy./Diag. 0.10E+00    8.7     0.00000651      -643.6778614410 -2.64E-04
    58 Broy./Diag. 0.10E+00    8.8     0.00000546      -643.6779713965 -1.10E-04
    59 Broy./Diag. 0.10E+00    8.7     0.00000406      -643.6779859249 -1.45E-05
    60 Broy./Diag. 0.10E+00    8.7     0.00000375      -643.6780455836 -5.97E-05
    61 Broy./Diag. 0.10E+00    8.7     0.00000384      -643.6780053901  4.02E-05
    62 Broy./Diag. 0.10E+00    8.7     0.00000279      -643.6778963562  1.09E-04
    63 Broy./Diag. 0.10E+00    8.7     0.00000262      -643.6778265049  6.99E-05
    64 Broy./Diag. 0.10E+00    8.7     0.00000235      -643.6778028906  2.36E-05
    65 Broy./Diag. 0.10E+00    8.8     0.00000158      -643.6778082180 -5.33E-06
    66 Broy./Diag. 0.10E+00    8.8     0.00000077      -643.6778100204 -1.80E-06
    67 Broy./Diag. 0.10E+00    8.7     0.00000100      -643.6778013843  8.64E-06
    68 Broy./Diag. 0.10E+00    8.7     0.00000026      -643.6777746316  2.68E-05

  *** SCF run converged in    68 steps ***


  Electronic density on regular grids:       -463.9999999988        0.0000000012
  Core density on regular grids:              463.9999999995       -0.0000000005
  Total charge density on r-space grids:        0.0000000006
  Total charge density g-space grids:           0.0000000006

  Overlap energy of the core charge distribution:               0.00002384473555
  Self energy of the core charge distribution:              -1516.08847113961383
  Core Hamiltonian energy:                                    477.28670347068532
  Hartree energy:                                             593.21823614631103
  Exchange-correlation energy:                               -197.84429557396035
  Dispersion energy:                                           -0.24693397129903
  Electronic entropic energy:                                  -0.00303740896604
  Fermi energy:                                                -0.11235085361755

  Total energy:                                              -643.67777463161963

  outer SCF iter =    1 RMS gradient =   0.26E-06 energy =       -643.6777746316
  outer SCF loop converged in   1 iterations or   68 steps


  Integrated absolute spin density  :                               0.0000000000
  WARNING: S**2 computation does not yet treat fractional occupied orbitals

 *** WARNING in qs_loc_utils.F:1387 :: User requested the calculation of ***
 *** the localized wavefunction but the section LOCALIZE was not         ***
 *** specified. Localization will not be performed!                      ***


 -------------------------------------------------------------------------------
 -                                                                             -
 -  BSSE CALCULATION         FRAGMENT CONF: 01        FRAGMENT SUBCONF: 01     -
 -                           CHARGE =     0           MULTIPLICITY =     0     -
 -                                                                             -
 -                 ATOM INDEX                              ATOM NAME           -
 -                 ----------                              ---------           -
 -                    129                                   Na                 -
 -------------------------------------------------------------------------------

 *******************************************************************************
 *******************************************************************************
 **                                                                           **
 **     #####                         ##              ##                      **
 **    ##   ##            ##          ##              ##                      **
 **   ##     ##                       ##            ######                    **
 **   ##     ##  ##   ##  ##   #####  ##  ##   ####   ##    #####    #####    **
 **   ##     ##  ##   ##  ##  ##      ## ##   ##      ##   ##   ##  ##   ##   **
 **   ##  ## ##  ##   ##  ##  ##      ####     ###    ##   ######   ######    **
 **    ##  ###   ##   ##  ##  ##      ## ##      ##   ##   ##       ##        **
 **     #######   #####   ##   #####  ##  ##  ####    ##    #####   ##        **
 **           ##                                                    ##        **
 **                                                                           **
 **                                                ... make the atoms dance   **
 **                                                                           **
 **            Copyright (C) by CP2K developers group (2000 - 2018)           **
 **                                                                           **
 *******************************************************************************

 *** WARNING in qs_environment.F:1128 :: More added MOs requested for beta ***
 *** spin than available.                                                  ***


 *** WARNING in qs_environment.F:1142 :: More added MOs requested than ***
 *** available. The full set of unoccupied MOs will be used.           ***



 TOTAL NUMBERS AND MAXIMUM NUMBERS

  Total number of            - Atomic kinds:                                   1
                             - Atoms:                                          1
                             - Shell sets:                                     1
                             - Shells:                                         5
                             - Primitive Cartesian functions:                  7
                             - Cartesian basis functions:                      9
                             - Spherical basis functions:                      9

  Maximum angular momentum of- Orbital basis functions:                        1
                             - Local part of the GTH pseudopotential:          2
                             - Non-local part of the GTH pseudopotential:      1


 SCF PARAMETERS         Density guess:                                    ATOMIC
                        --------------------------------------------------------
                        max_scf:                                             400
                        max_scf_history:                                       0
                        max_diis:                                              4
                        --------------------------------------------------------
                        eps_scf:                                        3.00E-07
                        eps_scf_history:                                0.00E+00
                        eps_diis:                                       1.00E-01
                        eps_eigval:                                     1.00E-05
                        --------------------------------------------------------
                        level_shift [a.u.]:                                 0.00
                        added MOs                                         4    5
                        --------------------------------------------------------
                        Mixing method:                            BROYDEN_MIXING
                                                charge density mixing in g-space
                        --------------------------------------------------------
                        Smear method:                                FERMI_DIRAC
                        Electronic temperature [K]:                        300.0
                        Electronic temperature [a.u.]:                  9.50E-04
                        Accuracy threshold:                             1.00E-10
                        --------------------------------------------------------
                        Outer loop SCF in use 
                        No variables optimised in outer loop
                        eps_scf                                         1.00E-06
                        max_scf                                              100
                        DIIS optimization
                        DIIS buffer length                                     3
                        step_size                                       5.00E-01

 Spin 1

 Number of electrons:                                                          5
 Number of occupied orbitals:                                                  5
 Number of molecular orbitals:                                                 9

 Spin 2

 Number of electrons:                                                          4
 Number of occupied orbitals:                                                  4
 Number of molecular orbitals:                                                 9

 Number of orbital functions:                                                  9
 Number of independent orbital functions:                                      9

 Extrapolation method: initial_guess


 SCF WAVEFUNCTION OPTIMIZATION

  Step     Update method      Time    Convergence         Total energy    Change
  ------------------------------------------------------------------------------
     1 NoMix/Diag. 0.10E+00    3.4     0.36439765       -47.1683890720 -4.72E+01
     2 Broy./Diag. 0.10E+00    5.5     0.01267633       -47.1409497767  2.74E-02
     3 Broy./Diag. 0.10E+00    5.8     0.06965143       -47.1646170288 -2.37E-02
     4 Broy./Diag. 0.10E+00    6.3     0.00151966       -47.1485939843  1.60E-02
     5 Broy./Diag. 0.10E+00    6.3     0.00357015       -47.1592767449 -1.07E-02
     6 Broy./Diag. 0.10E+00    6.7     0.00108471       -47.1511275992  8.15E-03
     7 Broy./Diag. 0.10E+00    7.2     0.01248184       -47.1577800639 -6.65E-03
     8 Broy./Diag. 0.10E+00    7.7     0.00437336       -47.1697830314 -1.20E-02
     9 Broy./Diag. 0.10E+00    8.3     0.00391330       -47.1641720882  5.61E-03
    10 Broy./Diag. 0.10E+00    8.9     0.00403507       -47.1658067070 -1.63E-03
    11 Broy./Diag. 0.10E+00    8.8     0.00102721       -47.1713555398 -5.55E-03
    12 Broy./Diag. 0.10E+00    9.0     0.00178092       -47.1679084460  3.45E-03
    13 Broy./Diag. 0.10E+00    9.0     0.00024518       -47.1716378427 -3.73E-03
    14 Broy./Diag. 0.10E+00    9.1     0.00127137       -47.1694330460  2.20E-03
    15 Broy./Diag. 0.10E+00    9.0     0.00031852       -47.1704653312 -1.03E-03
    16 Broy./Diag. 0.10E+00    9.0     0.00041875       -47.1702047599  2.61E-04
    17 Broy./Diag. 0.10E+00    9.0     0.00036627       -47.1673474673  2.86E-03
    18 Broy./Diag. 0.10E+00    9.0     0.00037755       -47.1693198932 -1.97E-03
    19 Broy./Diag. 0.10E+00    8.8     0.00025380       -47.1692841727  3.57E-05
    20 Broy./Diag. 0.10E+00    9.0     0.00042857       -47.1732675229 -3.98E-03
    21 Broy./Diag. 0.10E+00    9.0     0.00012003       -47.1738758469 -6.08E-04
    22 Broy./Diag. 0.10E+00    9.0     0.00018252       -47.1696029021  4.27E-03
    23 Broy./Diag. 0.10E+00    8.9     0.00071614       -47.1538362968  1.58E-02
    24 Broy./Diag. 0.10E+00    9.0     0.00014121       -47.1473935430  6.44E-03
    25 Broy./Diag. 0.10E+00    9.0     0.00023468       -47.1588705983 -1.15E-02
    26 Broy./Diag. 0.10E+00    9.0     0.00015653       -47.1612431076 -2.37E-03
    27 Broy./Diag. 0.10E+00    9.0     0.00007393       -47.1614692575 -2.26E-04
    28 Broy./Diag. 0.10E+00    9.0     0.00005203       -47.1605625061  9.07E-04
    29 Broy./Diag. 0.10E+00    8.9     0.00010583       -47.1602040617  3.58E-04
    30 Broy./Diag. 0.10E+00    9.0     0.00007051       -47.1603801398 -1.76E-04
    31 Broy./Diag. 0.10E+00    9.0     0.00010915       -47.1602304982  1.50E-04
    32 Broy./Diag. 0.10E+00    9.0     0.00011147       -47.1601280121  1.02E-04
    33 Broy./Diag. 0.10E+00    9.0     0.00007322       -47.1600580539  7.00E-05
    34 Broy./Diag. 0.10E+00    9.1     0.00009084       -47.1594057879  6.52E-04
    35 Broy./Diag. 0.10E+00    8.9     0.00003032       -47.1593594917  4.63E-05
    36 Broy./Diag. 0.10E+00    9.0     0.00000782       -47.1593427640  1.67E-05
    37 Broy./Diag. 0.10E+00    8.9     0.00006866       -47.1592979228  4.48E-05
    38 Broy./Diag. 0.10E+00    9.0     0.00004682       -47.1593587654 -6.08E-05
    39 Broy./Diag. 0.10E+00    9.0     0.00001234       -47.1593282050  3.06E-05
    40 Broy./Diag. 0.10E+00    9.1     0.00001275       -47.1589524287  3.76E-04
    41 Broy./Diag. 0.10E+00    9.0     0.00000818       -47.1588559193  9.65E-05
    42 Broy./Diag. 0.10E+00    9.0     0.00000949       -47.1590625466 -2.07E-04
    43 Broy./Diag. 0.10E+00    8.9     0.00001545       -47.1591325377 -7.00E-05
    44 Broy./Diag. 0.10E+00    9.0     0.00000598       -47.1591123245  2.02E-05
    45 Broy./Diag. 0.10E+00    9.0     0.00001740       -47.1591223122 -9.99E-06
    46 Broy./Diag. 0.10E+00    9.0     0.00002328       -47.1591488886 -2.66E-05
    47 Broy./Diag. 0.10E+00    8.9     0.00001471       -47.1590818000  6.71E-05
    48 Broy./Diag. 0.10E+00    9.0     0.00002432       -47.1590365012  4.53E-05
    49 Broy./Diag. 0.10E+00    9.0     0.00001144       -47.1590658352 -2.93E-05
    50 Broy./Diag. 0.10E+00    9.0     0.00001529       -47.1589570975  1.09E-04
    51 Broy./Diag. 0.10E+00    8.9     0.00001390       -47.1589256140  3.15E-05
    52 Broy./Diag. 0.10E+00    9.0     0.00001223       -47.1589612416 -3.56E-05
    53 Broy./Diag. 0.10E+00    9.0     0.00000526       -47.1589655518 -4.31E-06
    54 Broy./Diag. 0.10E+00    9.0     0.00000445       -47.1589246335  4.09E-05
    55 Broy./Diag. 0.10E+00    8.9     0.00002448       -47.1589012600  2.34E-05
    56 Broy./Diag. 0.10E+00    8.9     0.00000588       -47.1590011307 -9.99E-05
    57 Broy./Diag. 0.10E+00    8.9     0.00000686       -47.1589834519  1.77E-05
    58 Broy./Diag. 0.10E+00    9.0     0.00000604       -47.1589072675  7.62E-05
    59 Broy./Diag. 0.10E+00    8.8     0.00000716       -47.1589321877 -2.49E-05
    60 Broy./Diag. 0.10E+00    9.0     0.00000734       -47.1588675893  6.46E-05
    61 Broy./Diag. 0.10E+00    8.9     0.00000408       -47.1588388154  2.88E-05
    62 Broy./Diag. 0.10E+00    9.0     0.00000635       -47.1588751542 -3.63E-05
    63 Broy./Diag. 0.10E+00    9.0     0.00000715       -47.1588793628 -4.21E-06
    64 Broy./Diag. 0.10E+00    8.9     0.00000083       -47.1588078362  7.15E-05
    65 Broy./Diag. 0.10E+00    8.9     0.00000569       -47.1588103285 -2.49E-06
    66 Broy./Diag. 0.10E+00    9.0     0.00000315       -47.1588710825 -6.08E-05
    67 Broy./Diag. 0.10E+00    8.9     0.00000665       -47.1588562829  1.48E-05
    68 Broy./Diag. 0.10E+00    9.0     0.00000137       -47.1589071168 -5.08E-05
    69 Broy./Diag. 0.10E+00    9.0     0.00000484       -47.1589278668 -2.07E-05
    70 Broy./Diag. 0.10E+00    9.0     0.00001396       -47.1589796697 -5.18E-05
    71 Broy./Diag. 0.10E+00    9.0     0.00000077       -47.1590293140 -4.96E-05
    72 Broy./Diag. 0.10E+00    9.0     0.00000300       -47.1590423776 -1.31E-05
    73 Broy./Diag. 0.10E+00    8.9     0.00000361       -47.1589960097  4.64E-05
    74 Broy./Diag. 0.10E+00    9.0     0.00000154       -47.1589923801  3.63E-06
    75 Broy./Diag. 0.10E+00    8.8     0.00000318       -47.1590026512 -1.03E-05
    76 Broy./Diag. 0.10E+00    9.0     0.00000180       -47.1589815932  2.11E-05
    77 Broy./Diag. 0.10E+00    8.9     0.00000130       -47.1589898918 -8.30E-06
    78 Broy./Diag. 0.10E+00    8.9     0.00000224       -47.1590058744 -1.60E-05
    79 Broy./Diag. 0.10E+00    8.9     0.00000386       -47.1590122608 -6.39E-06
    80 Broy./Diag. 0.10E+00    9.0     0.00000250       -47.1589893054  2.30E-05
    81 Broy./Diag. 0.10E+00    9.0     0.00000212       -47.1589888954  4.10E-07
    82 Broy./Diag. 0.10E+00    9.0     0.00000074       -47.1589947810 -5.89E-06
    83 Broy./Diag. 0.10E+00    8.8     0.00000162       -47.1589953600 -5.79E-07
    84 Broy./Diag. 0.10E+00    9.0     0.00000258       -47.1589988263 -3.47E-06
    85 Broy./Diag. 0.10E+00    9.0     0.00000064       -47.1589900616  8.76E-06
    86 Broy./Diag. 0.10E+00    9.0     0.00000119       -47.1589843909  5.67E-06
    87 Broy./Diag. 0.10E+00    9.0     0.00000186       -47.1589896621 -5.27E-06
    88 Broy./Diag. 0.10E+00    9.0     0.00000145       -47.1589934796 -3.82E-06
    89 Broy./Diag. 0.10E+00    9.0     0.00000112       -47.1589881136  5.37E-06
    90 Broy./Diag. 0.10E+00    9.0     0.00000209       -47.1589898658 -1.75E-06
    91 Broy./Diag. 0.10E+00    8.8     0.00000058       -47.1589942614 -4.40E-06
    92 Broy./Diag. 0.10E+00    8.9     0.00000177       -47.1589961353 -1.87E-06
    93 Broy./Diag. 0.10E+00    9.0     0.00000230       -47.1589882129  7.92E-06
    94 Broy./Diag. 0.10E+00    9.1     0.00000334       -47.1589957082 -7.50E-06
    95 Broy./Diag. 0.10E+00    8.9     0.00000122       -47.1589879837  7.72E-06
    96 Broy./Diag. 0.10E+00    9.0     0.00000349       -47.1589911375 -3.15E-06
    97 Broy./Diag. 0.10E+00    9.0     0.00000055       -47.1589999704 -8.83E-06
    98 Broy./Diag. 0.10E+00    8.9     0.00000299       -47.1590001608 -1.90E-07
    99 Broy./Diag. 0.10E+00    8.9     0.00000268       -47.1589864366  1.37E-05
   100 Broy./Diag. 0.10E+00    8.9     0.00000148       -47.1589737165  1.27E-05
   101 Broy./Diag. 0.10E+00    8.9     0.00000045       -47.1589679692  5.75E-06
   102 Broy./Diag. 0.10E+00    9.0     0.00000010       -47.1589670483  9.21E-07

  *** SCF run converged in   102 steps ***


  Electronic density on regular grids:         -9.0001228393       -0.0001228393
  Core density on regular grids:                9.0000000000       -0.0000000000
  Total charge density on r-space grids:       -0.0001228393
  Total charge density g-space grids:          -0.0001228393

  Overlap energy of the core charge distribution:               0.00000000000000
  Self energy of the core charge distribution:                -96.60649019442629
  Core Hamiltonian energy:                                     29.74700540222580
  Hartree energy:                                              26.74416833225387
  Exchange-correlation energy:                                 -7.04364928227661
  Dispersion energy:                                           -0.00000130538029
  Electronic entropic energy:                                  -0.00000000071358
  Fermi energy:                                                -0.08389275994079

  Total energy:                                               -47.15896704831757

  outer SCF iter =    1 RMS gradient =   0.10E-06 energy =        -47.1589670483
  outer SCF loop converged in   1 iterations or  102 steps


  Integrated absolute spin density  :                               1.0000142260
  WARNING: S**2 computation does not yet treat fractional occupied orbitals

 *** WARNING in qs_loc_utils.F:1387 :: User requested the calculation of ***
 *** the localized wavefunction but the section LOCALIZE was not         ***
 *** specified. Localization will not be performed!                      ***


 -------------------------------------------------------------------------------
 -                                                                             -
 -  BSSE CALCULATION         FRAGMENT CONF: 11        FRAGMENT SUBCONF: 10     -
 -                           CHARGE =     0           MULTIPLICITY =     0     -
 -                                                                             -
 -                 ATOM INDEX                              ATOM NAME           -
 -                 ----------                              ---------           -
 -                      1                                   C                  -
 -                      2                                   C                  -
 -                      3                                   C                  -
 -                      4                                   C                  -
 -                      5                                   C                  -
 -                      6                                   C                  -
 -                      7                                   C                  -
 -                      8                                   C                  -
 -                      9                                   C                  -
 -                     10                                   C                  -
 -                     11                                   C                  -
 -                     12                                   C                  -
 -                     13                                   C                  -
 -                     14                                   C                  -
 -                     15                                   C                  -
 -                     16                                   C                  -
 -                     17                                   C                  -
 -                     18                                   C                  -
 -                     19                                   C                  -
 -                     20                                   C                  -
 -                     21                                   C                  -
 -                     22                                   C                  -
 -                     23                                   C                  -
 -                     24                                   C                  -
 -                     25                                   C                  -
 -                     26                                   C                  -
 -                     27                                   C                  -
 -                     28                                   C                  -
 -                     29                                   C                  -
 -                     30                                   C                  -
 -                     31                                   C                  -
 -                     32                                   C                  -
 -                     33                                   C                  -
 -                     34                                   C                  -
 -                     35                                   C                  -
 -                     36                                   C                  -
 -                     37                                   C                  -
 -                     38                                   C                  -
 -                     39                                   C                  -
 -                     40                                   C                  -
 -                     41                                   C                  -
 -                     42                                   C                  -
 -                     43                                   C                  -
 -                     44                                   C                  -
 -                     45                                   C                  -
 -                     46                                   C                  -
 -                     47                                   C                  -
 -                     48                                   C                  -
 -                     49                                   C                  -
 -                     50                                   C                  -
 -                     51                                   C                  -
 -                     52                                   C                  -
 -                     53                                   C                  -
 -                     54                                   C                  -
 -                     55                                   C                  -
 -                     56                                   C                  -
 -                     57                                   C                  -
 -                     58                                   C                  -
 -                     59                                   C                  -
 -                     60                                   C                  -
 -                     61                                   C                  -
 -                     62                                   C                  -
 -                     63                                   C                  -
 -                     64                                   C                  -
 -                     65                                   C                  -
 -                     66                                   C                  -
 -                     67                                   C                  -
 -                     68                                   C                  -
 -                     69                                   C                  -
 -                     70                                   C                  -
 -                     71                                   C                  -
 -                     72                                   C                  -
 -                     73                                   C                  -
 -                     74                                   C                  -
 -                     75                                   C                  -
 -                     76                                   C                  -
 -                     77                                   C                  -
 -                     78                                   C                  -
 -                     79                                   C                  -
 -                     80                                   C                  -
 -                     81                                   C                  -
 -                     82                                   C                  -
 -                     83                                   C                  -
 -                     84                                   C                  -
 -                     85                                   C                  -
 -                     86                                   C                  -
 -                     87                                   C                  -
 -                     88                                   C                  -
 -                     89                                   C                  -
 -                     90                                   C                  -
 -                     91                                   C                  -
 -                     92                                   C                  -
 -                     93                                   C                  -
 -                     94                                   C                  -
 -                     95                                   C                  -
 -                     96                                   C                  -
 -                     97                                   C                  -
 -                     98                                   C                  -
 -                     99                                   C                  -
 -                    100                                   C                  -
 -                    101                                   C                  -
 -                    102                                   C                  -
 -                    103                                   C                  -
 -                    104                                   C                  -
 -                    105                                   C                  -
 -                    106                                   C                  -
 -                    107                                   C                  -
 -                    108                                   C                  -
 -                    109                                   C                  -
 -                    110                                   C                  -
 -                    111                                   C                  -
 -                    112                                   C                  -
 -                    113                                   H                  -
 -                    114                                   H                  -
 -                    115                                   H                  -
 -                    116                                   H                  -
 -                    117                                   H                  -
 -                    118                                   H                  -
 -                    119                                   H                  -
 -                    120                                   H                  -
 -                    121                                   H                  -
 -                    122                                   H                  -
 -                    123                                   H                  -
 -                    124                                   H                  -
 -                    125                                   H                  -
 -                    126                                   H                  -
 -                    127                                   H                  -
 -                    128                                   H                  -
 -                    129                                   Na_ghost           -
 -------------------------------------------------------------------------------

 *******************************************************************************
 *******************************************************************************
 **                                                                           **
 **     #####                         ##              ##                      **
 **    ##   ##            ##          ##              ##                      **
 **   ##     ##                       ##            ######                    **
 **   ##     ##  ##   ##  ##   #####  ##  ##   ####   ##    #####    #####    **
 **   ##     ##  ##   ##  ##  ##      ## ##   ##      ##   ##   ##  ##   ##   **
 **   ##  ## ##  ##   ##  ##  ##      ####     ###    ##   ######   ######    **
 **    ##  ###   ##   ##  ##  ##      ## ##      ##   ##   ##       ##        **
 **     #######   #####   ##   #####  ##  ##  ####    ##    #####   ##        **
 **           ##                                                    ##        **
 **                                                                           **
 **                                                ... make the atoms dance   **
 **                                                                           **
 **            Copyright (C) by CP2K developers group (2000 - 2018)           **
 **                                                                           **
 *******************************************************************************


 TOTAL NUMBERS AND MAXIMUM NUMBERS

  Total number of            - Atomic kinds:                                   3
                             - Atoms:                                        129
                             - Shell sets:                                   129
                             - Shells:                                       613
                             - Primitive Cartesian functions:                647
                             - Cartesian basis functions:                   1657
                             - Spherical basis functions:                   1545

  Maximum angular momentum of- Orbital basis functions:                        2
                             - Local part of the GTH pseudopotential:          2
                             - Non-local part of the GTH pseudopotential:      0


 SCF PARAMETERS         Density guess:                                    ATOMIC
                        --------------------------------------------------------
                        max_scf:                                             400
                        max_scf_history:                                       0
                        max_diis:                                              4
                        --------------------------------------------------------
                        eps_scf:                                        3.00E-07
                        eps_scf_history:                                0.00E+00
                        eps_diis:                                       1.00E-01
                        eps_eigval:                                     1.00E-05
                        --------------------------------------------------------
                        level_shift [a.u.]:                                 0.00
                        added MOs                                       100  100
                        --------------------------------------------------------
                        Mixing method:                            BROYDEN_MIXING
                                                charge density mixing in g-space
                        --------------------------------------------------------
                        Smear method:                                FERMI_DIRAC
                        Electronic temperature [K]:                        300.0
                        Electronic temperature [a.u.]:                  9.50E-04
                        Accuracy threshold:                             1.00E-10
                        --------------------------------------------------------
                        Outer loop SCF in use 
                        No variables optimised in outer loop
                        eps_scf                                         1.00E-06
                        max_scf                                              100
                        DIIS optimization
                        DIIS buffer length                                     3
                        step_size                                       5.00E-01

 Spin 1

 Number of electrons:                                                        232
 Number of occupied orbitals:                                                232
 Number of molecular orbitals:                                               332

 Spin 2

 Number of electrons:                                                        232
 Number of occupied orbitals:                                                232
 Number of molecular orbitals:                                               332

 Number of orbital functions:                                               1545
 Number of independent orbital functions:                                   1545

 Extrapolation method: initial_guess


 SCF WAVEFUNCTION OPTIMIZATION

  Step     Update method      Time    Convergence         Total energy    Change
  ------------------------------------------------------------------------------
     1 NoMix/Diag. 0.10E+00    4.9     0.45118899      -636.4164223400 -6.36E+02
     2 Broy./Diag. 0.10E+00    8.2     0.04872029      -609.9980644389  2.64E+01
     3 Broy./Diag. 0.10E+00    8.4     0.14129038      -624.0992477516 -1.41E+01
     4 Broy./Diag. 0.10E+00    8.7     7.62202059      -637.3984968248 -1.33E+01
     5 Broy./Diag. 0.10E+00    8.9     7.62197248      -616.9399262246  2.05E+01
     6 Broy./Diag. 0.10E+00    9.2     7.54136150      -641.0939965413 -2.42E+01
     7 Broy./Diag. 0.10E+00    9.6     7.54135785      -618.4434002740  2.27E+01
     8 Broy./Diag. 0.10E+00   10.0     7.68262838      -641.5231001652 -2.31E+01
     9 Broy./Diag. 0.10E+00   10.6     7.68262991      -595.0002357930  4.65E+01
    10 Broy./Diag. 0.10E+00   11.1     7.57698144      -641.6570398919 -4.67E+01
    11 Broy./Diag. 0.10E+00   11.1     7.57697905      -589.6954288504  5.20E+01
    12 Broy./Diag. 0.10E+00   11.2     7.61565602      -641.8258692954 -5.21E+01
    13 Broy./Diag. 0.10E+00   11.2     7.61565376      -574.8449699703  6.70E+01
    14 Broy./Diag. 0.10E+00   11.2     7.60292355      -641.7317634705 -6.69E+01
    15 Broy./Diag. 0.10E+00   11.2     7.60292002      -597.5020772082  4.42E+01
    16 Broy./Diag. 0.10E+00   11.2     7.59476571      -641.9466246008 -4.44E+01
    17 Broy./Diag. 0.10E+00   11.2     7.59945674      -597.6755097138  4.43E+01
    18 Broy./Diag. 0.10E+00   11.2     7.71404951      -642.1001244751 -4.44E+01
    19 Broy./Diag. 0.10E+00   11.0     7.71404837      -574.2682256437  6.78E+01
    20 Broy./Diag. 0.10E+00   11.2     0.00300662      -642.1874792362 -6.79E+01
    21 Broy./Diag. 0.10E+00   11.1     0.02379066      -642.2604650888 -7.30E-02
    22 Broy./Diag. 0.10E+00   11.2     0.00512114      -642.8497623714 -5.89E-01
    23 Broy./Diag. 0.10E+00   11.1     0.01815559      -642.9628620129 -1.13E-01
    24 Broy./Diag. 0.10E+00   11.2     0.00317912      -643.1882273320 -2.25E-01
    25 Broy./Diag. 0.10E+00   11.2     0.00259512      -643.2796837596 -9.15E-02
    26 Broy./Diag. 0.10E+00   11.2     0.00189271      -643.4573765838 -1.78E-01
    27 Broy./Diag. 0.10E+00   11.1     0.00288297      -643.5008804692 -4.35E-02
    28 Broy./Diag. 0.10E+00   11.1     0.00120328      -643.5907801919 -8.99E-02
    29 Broy./Diag. 0.10E+00   11.2     0.00392909      -643.5878148097  2.97E-03
    30 Broy./Diag. 0.10E+00   11.2     0.00063798      -643.6106106082 -2.28E-02
    31 Broy./Diag. 0.10E+00   11.2     0.00064900      -643.6211604437 -1.05E-02
    32 Broy./Diag. 0.10E+00   11.2     0.00111737      -643.6255030040 -4.34E-03
    33 Broy./Diag. 0.10E+00   11.2     0.00041894      -643.6265796652 -1.08E-03
    34 Broy./Diag. 0.10E+00   11.3     0.00056212      -643.6267881657 -2.09E-04
    35 Broy./Diag. 0.10E+00   11.1     0.00036102      -643.6371906412 -1.04E-02
    36 Broy./Diag. 0.10E+00   11.2     0.00018795      -643.6523108676 -1.51E-02
    37 Broy./Diag. 0.10E+00   11.1     0.00039782      -643.6590880142 -6.78E-03
    38 Broy./Diag. 0.10E+00   11.2     0.00011854      -643.6603707054 -1.28E-03
    39 Broy./Diag. 0.10E+00   11.2     0.00025524      -643.6644559976 -4.09E-03
    40 Broy./Diag. 0.10E+00   11.3     0.00009987      -643.6690064068 -4.55E-03
    41 Broy./Diag. 0.10E+00   11.1     0.00018495      -643.6732456752 -4.24E-03
    42 Broy./Diag. 0.10E+00   11.2     0.00004015      -643.6774511062 -4.21E-03
    43 Broy./Diag. 0.10E+00   11.1     0.00018755      -643.6774329390  1.82E-05
    44 Broy./Diag. 0.10E+00   11.2     0.00004419      -643.6776117132 -1.79E-04
    45 Broy./Diag. 0.10E+00   11.2     0.00004537      -643.6768617777  7.50E-04
    46 Broy./Diag. 0.10E+00   11.2     0.00004033      -643.6787178840 -1.86E-03
    47 Broy./Diag. 0.10E+00   11.2     0.00002914      -643.6795437233 -8.26E-04
    48 Broy./Diag. 0.10E+00   11.3     0.00004796      -643.6794223209  1.21E-04
    49 Broy./Diag. 0.10E+00   11.2     0.00001395      -643.6793180583  1.04E-04
    50 Broy./Diag. 0.10E+00   11.3     0.00006243      -643.6789350471  3.83E-04
    51 Broy./Diag. 0.10E+00   11.1     0.00001637      -643.6782382195  6.97E-04
    52 Broy./Diag. 0.10E+00   11.2     0.00003675      -643.6778364429  4.02E-04
    53 Broy./Diag. 0.10E+00   11.2     0.00001405      -643.6775770842  2.59E-04
    54 Broy./Diag. 0.10E+00   11.2     0.00001290      -643.6776021533 -2.51E-05
    55 Broy./Diag. 0.10E+00   11.1     0.00002174      -643.6776149040 -1.28E-05
    56 Broy./Diag. 0.10E+00   11.2     0.00000812      -643.6775464930  6.84E-05
    57 Broy./Diag. 0.10E+00   11.2     0.00001318      -643.6776015739 -5.51E-05
    58 Broy./Diag. 0.10E+00   11.2     0.00000572      -643.6778415107 -2.40E-04
    59 Broy./Diag. 0.10E+00   11.1     0.00000223      -643.6779839430 -1.42E-04
    60 Broy./Diag. 0.10E+00   11.1     0.00000617      -643.6781124147 -1.28E-04
    61 Broy./Diag. 0.10E+00   11.2     0.00000203      -643.6783010873 -1.89E-04
    62 Broy./Diag. 0.10E+00   11.2     0.00000565      -643.6783815505 -8.05E-05
    63 Broy./Diag. 0.10E+00   11.3     0.00000167      -643.6785103347 -1.29E-04
    64 Broy./Diag. 0.10E+00   11.2     0.00000415      -643.6785459155 -3.56E-05
    65 Broy./Diag. 0.10E+00   11.2     0.00000132      -643.6785934983 -4.76E-05
    66 Broy./Diag. 0.10E+00   11.3     0.00000282      -643.6785969508 -3.45E-06
    67 Broy./Diag. 0.10E+00   11.1     0.00000124      -643.6786112424 -1.43E-05
    68 Broy./Diag. 0.10E+00   11.2     0.00000096      -643.6786197036 -8.46E-06
    69 Broy./Diag. 0.10E+00   11.3     0.00000086      -643.6786145728  5.13E-06
    70 Broy./Diag. 0.10E+00   11.3     0.00000075      -643.6785984838  1.61E-05
    71 Broy./Diag. 0.10E+00   11.2     0.00000072      -643.6785780065  2.05E-05
    72 Broy./Diag. 0.10E+00   11.2     0.00000093      -643.6785693586  8.65E-06
    73 Broy./Diag. 0.10E+00   11.1     0.00000082      -643.6785637721  5.59E-06
    74 Broy./Diag. 0.10E+00   11.2     0.00000050      -643.6785545640  9.21E-06
    75 Broy./Diag. 0.10E+00   11.1     0.00000083      -643.6785453089  9.26E-06
    76 Broy./Diag. 0.10E+00   11.2     0.00000069      -643.6785300611  1.52E-05
    77 Broy./Diag. 0.10E+00   11.2     0.00000050      -643.6785208868  9.17E-06
    78 Broy./Diag. 0.10E+00   11.2     0.00000062      -643.6785195464  1.34E-06
    79 Broy./Diag. 0.10E+00   11.2     0.00000040      -643.6785193101  2.36E-07
    80 Broy./Diag. 0.10E+00   11.3     0.00000030      -643.6785198335 -5.23E-07

  *** SCF run converged in    80 steps ***


  Electronic density on regular grids:       -463.9999999986        0.0000000014
  Core density on regular grids:              463.9999999995       -0.0000000005
  Total charge density on r-space grids:        0.0000000009
  Total charge density g-space grids:           0.0000000009

  Overlap energy of the core charge distribution:               0.00002384473555
  Self energy of the core charge distribution:              -1516.08847113961383
  Core Hamiltonian energy:                                    477.28172824278329
  Hartree energy:                                             593.22145666385723
  Exchange-correlation energy:                               -197.84328536802252
  Dispersion energy:                                           -0.24693397129903
  Electronic entropic energy:                                  -0.00303810607589
  Fermi energy:                                                -0.11238432057208

  Total energy:                                              -643.67851983349931

  outer SCF iter =    1 RMS gradient =   0.30E-06 energy =       -643.6785198335
  outer SCF loop converged in   1 iterations or   80 steps


  Integrated absolute spin density  :                               0.0000000000
  WARNING: S**2 computation does not yet treat fractional occupied orbitals

 *** WARNING in qs_loc_utils.F:1387 :: User requested the calculation of ***
 *** the localized wavefunction but the section LOCALIZE was not         ***
 *** specified. Localization will not be performed!                      ***


 -------------------------------------------------------------------------------
 -                                                                             -
 -  BSSE CALCULATION         FRAGMENT CONF: 11        FRAGMENT SUBCONF: 01     -
 -                           CHARGE =     0           MULTIPLICITY =     0     -
 -                                                                             -
 -                 ATOM INDEX                              ATOM NAME           -
 -                 ----------                              ---------           -
 -                      1                                   C_ghost            -
 -                      2                                   C_ghost            -
 -                      3                                   C_ghost            -
 -                      4                                   C_ghost            -
 -                      5                                   C_ghost            -
 -                      6                                   C_ghost            -
 -                      7                                   C_ghost            -
 -                      8                                   C_ghost            -
 -                      9                                   C_ghost            -
 -                     10                                   C_ghost            -
 -                     11                                   C_ghost            -
 -                     12                                   C_ghost            -
 -                     13                                   C_ghost            -
 -                     14                                   C_ghost            -
 -                     15                                   C_ghost            -
 -                     16                                   C_ghost            -
 -                     17                                   C_ghost            -
 -                     18                                   C_ghost            -
 -                     19                                   C_ghost            -
 -                     20                                   C_ghost            -
 -                     21                                   C_ghost            -
 -                     22                                   C_ghost            -
 -                     23                                   C_ghost            -
 -                     24                                   C_ghost            -
 -                     25                                   C_ghost            -
 -                     26                                   C_ghost            -
 -                     27                                   C_ghost            -
 -                     28                                   C_ghost            -
 -                     29                                   C_ghost            -
 -                     30                                   C_ghost            -
 -                     31                                   C_ghost            -
 -                     32                                   C_ghost            -
 -                     33                                   C_ghost            -
 -                     34                                   C_ghost            -
 -                     35                                   C_ghost            -
 -                     36                                   C_ghost            -
 -                     37                                   C_ghost            -
 -                     38                                   C_ghost            -
 -                     39                                   C_ghost            -
 -                     40                                   C_ghost            -
 -                     41                                   C_ghost            -
 -                     42                                   C_ghost            -
 -                     43                                   C_ghost            -
 -                     44                                   C_ghost            -
 -                     45                                   C_ghost            -
 -                     46                                   C_ghost            -
 -                     47                                   C_ghost            -
 -                     48                                   C_ghost            -
 -                     49                                   C_ghost            -
 -                     50                                   C_ghost            -
 -                     51                                   C_ghost            -
 -                     52                                   C_ghost            -
 -                     53                                   C_ghost            -
 -                     54                                   C_ghost            -
 -                     55                                   C_ghost            -
 -                     56                                   C_ghost            -
 -                     57                                   C_ghost            -
 -                     58                                   C_ghost            -
 -                     59                                   C_ghost            -
 -                     60                                   C_ghost            -
 -                     61                                   C_ghost            -
 -                     62                                   C_ghost            -
 -                     63                                   C_ghost            -
 -                     64                                   C_ghost            -
 -                     65                                   C_ghost            -
 -                     66                                   C_ghost            -
 -                     67                                   C_ghost            -
 -                     68                                   C_ghost            -
 -                     69                                   C_ghost            -
 -                     70                                   C_ghost            -
 -                     71                                   C_ghost            -
 -                     72                                   C_ghost            -
 -                     73                                   C_ghost            -
[...]
   346 Broy./Diag. 0.10E+00   11.0     0.00002500      -690.8665759190 -9.90E-06
   347 Broy./Diag. 0.10E+00   10.9     0.00006441      -690.8665697423  6.18E-06
   348 Broy./Diag. 0.10E+00   11.0     0.00007221      -690.8665638667  5.88E-06
   349 Broy./Diag. 0.10E+00   10.9     0.00003479      -690.8665564582  7.41E-06
   350 Broy./Diag. 0.10E+00   10.9     0.00000319      -690.8665658963 -9.44E-06
   351 Broy./Diag. 0.10E+00   10.8     0.00003146      -690.8665608186  5.08E-06
   352 Broy./Diag. 0.10E+00   10.9     0.00009905      -690.8665612121 -3.93E-07
   353 Broy./Diag. 0.10E+00   10.9     0.00002423      -690.8665744846 -1.33E-05
   354 Broy./Diag. 0.10E+00   10.9     0.00008469      -690.8665833903 -8.91E-06
   355 Broy./Diag. 0.10E+00   10.9     0.00003844      -690.8665645525  1.88E-05
   356 Broy./Diag. 0.10E+00   11.0     0.00005866      -690.8665732440 -8.69E-06
   357 Broy./Diag. 0.10E+00   11.0     0.00002436      -690.8665697724  3.47E-06
   358 Broy./Diag. 0.10E+00   10.9     0.00003617      -690.8665784267 -8.65E-06
   359 Broy./Diag. 0.10E+00   10.8     0.00003329      -690.8665735452  4.88E-06
   360 Broy./Diag. 0.10E+00   10.9     0.00021329      -690.8665874762 -1.39E-05
   361 Broy./Diag. 0.10E+00   10.9     0.00001196      -690.8665640288  2.34E-05
   362 Broy./Diag. 0.10E+00   11.0     0.00004242      -690.8665632903  7.39E-07
   363 Broy./Diag. 0.10E+00   11.0     0.00004117      -690.8665716556 -8.37E-06
   364 Broy./Diag. 0.10E+00   11.0     0.00010340      -690.8665737127 -2.06E-06
   365 Broy./Diag. 0.10E+00   11.0     0.00007094      -690.8665694607  4.25E-06
   366 Broy./Diag. 0.10E+00   10.9     0.00009633      -690.8665539963  1.55E-05
   367 Broy./Diag. 0.10E+00   10.8     0.00000368      -690.8665623224 -8.33E-06
   368 Broy./Diag. 0.10E+00   10.8     0.00003047      -690.8665636898 -1.37E-06
   369 Broy./Diag. 0.10E+00   10.9     0.00004718      -690.8665666523 -2.96E-06
   370 Broy./Diag. 0.10E+00   11.0     0.00000465      -690.8665756585 -9.01E-06
   371 Broy./Diag. 0.10E+00   10.9     0.00005525      -690.8665705445  5.11E-06
   372 Broy./Diag. 0.10E+00   10.9     0.00005501      -690.8665656083  4.94E-06
   373 Broy./Diag. 0.10E+00   10.9     0.00003930      -690.8665722332 -6.62E-06
   374 Broy./Diag. 0.10E+00   10.9     0.00002873      -690.8665675126  4.72E-06
   375 Broy./Diag. 0.10E+00   10.9     0.00012050      -690.8665702739 -2.76E-06
   376 Broy./Diag. 0.10E+00   10.9     0.00001471      -690.8665713533 -1.08E-06
   377 Broy./Diag. 0.10E+00   10.9     0.00009314      -690.8665797036 -8.35E-06
   378 Broy./Diag. 0.10E+00   11.0     0.00009634      -690.8665669758  1.27E-05
   379 Broy./Diag. 0.10E+00   10.9     0.00002386      -690.8665730299 -6.05E-06
   380 Broy./Diag. 0.10E+00   11.0     0.00010856      -690.8665717428  1.29E-06
   381 Broy./Diag. 0.10E+00   11.0     0.00004496      -690.8665692995  2.44E-06
   382 Broy./Diag. 0.10E+00   10.9     0.00019598      -690.8665718060 -2.51E-06
   383 Broy./Diag. 0.10E+00   10.9     0.00002152      -690.8665608758  1.09E-05
   384 Broy./Diag. 0.10E+00   10.9     0.00003188      -690.8665644487 -3.57E-06
   385 Broy./Diag. 0.10E+00   10.9     0.00001771      -690.8665682929 -3.84E-06
   386 Broy./Diag. 0.10E+00   10.9     0.00002246      -690.8665655920  2.70E-06
   387 Broy./Diag. 0.10E+00   10.9     0.00004302      -690.8665645417  1.05E-06
   388 Broy./Diag. 0.10E+00   11.0     0.00000821      -690.8665619175  2.62E-06
   389 Broy./Diag. 0.10E+00   10.9     0.00000487      -690.8665635591 -1.64E-06
   390 Broy./Diag. 0.10E+00   10.9     0.00000654      -690.8665656938 -2.13E-06
   391 Broy./Diag. 0.10E+00   10.8     0.00001360      -690.8665595387  6.16E-06
   392 Broy./Diag. 0.10E+00   10.9     0.00001919      -690.8665554910  4.05E-06
   393 Broy./Diag. 0.10E+00   11.0     0.00003176      -690.8665556377 -1.47E-07
   394 Broy./Diag. 0.10E+00   10.9     0.00004351      -690.8665657359 -1.01E-05
   395 Broy./Diag. 0.10E+00   10.9     0.00000842      -690.8665558751  9.86E-06
   396 Broy./Diag. 0.10E+00   10.9     0.00002080      -690.8665638972 -8.02E-06
   397 Broy./Diag. 0.10E+00   11.0     0.00003122      -690.8665580814  5.82E-06
   398 Broy./Diag. 0.10E+00   10.9     0.00005967      -690.8665603667 -2.29E-06
   399 Broy./Diag. 0.10E+00   10.9     0.00004803      -690.8665547577  5.61E-06
   400 Broy./Diag. 0.10E+00   10.9     0.00009063      -690.8665635952 -8.84E-06

  Leaving inner SCF loop after reaching   400 steps.


  Electronic density on regular grids:       -473.0001233542       -0.0001233542
  Core density on regular grids:              472.9999999995       -0.0000000005
  Total charge density on r-space grids:       -0.0001233547
  Total charge density g-space grids:          -0.0001233547

  Overlap energy of the core charge distribution:               0.00002384473555
  Self energy of the core charge distribution:              -1612.69496133404004
  Core Hamiltonian energy:                                    507.27176183274446
  Hartree energy:                                             619.85683435473425
  Exchange-correlation energy:                               -205.04223891771895
  Dispersion energy:                                           -0.25538658748617
  Electronic entropic energy:                                  -0.00259677954357
  Fermi energy:                                                -0.10112756417045

  Total energy:                                              -690.86656359516758

  outer SCF iter =    4 RMS gradient =   0.91E-04 energy =       -690.8665635952
     1 Broy./Diag. 0.10E+00   18.5     0.00044540      -690.8665735167 -9.92E-06
     2 Broy./Diag. 0.10E+00   11.0     0.00036375      -690.8670248626 -4.51E-04
     3 Broy./Diag. 0.10E+00   10.9     0.00008482      -690.8665892158  4.36E-04
     4 Broy./Diag. 0.10E+00   10.9     0.00001573      -690.8665940893 -4.87E-06
     5 Broy./Diag. 0.10E+00   10.9     0.00001520      -690.8665962839 -2.19E-06
     6 Broy./Diag. 0.10E+00   11.0     0.00000854      -690.8665968355 -5.52E-07
     7 Broy./Diag. 0.10E+00   10.8     0.00002412      -690.8665942297  2.61E-06
     8 Broy./Diag. 0.10E+00   10.8     0.00000587      -690.8665995153 -5.29E-06
     9 Broy./Diag. 0.10E+00   10.9     0.00004547      -690.8665953539  4.16E-06
    10 Broy./Diag. 0.10E+00   11.0     0.00000775      -690.8666005770 -5.22E-06
    11 Broy./Diag. 0.10E+00   11.0     0.00030230      -690.8666009272 -3.50E-07
    12 Broy./Diag. 0.10E+00   10.9     0.00011918      -690.8665770968  2.38E-05
    13 Broy./Diag. 0.10E+00   10.9     0.00005945      -690.8665724031  4.69E-06
    14 Broy./Diag. 0.10E+00   11.0     0.00002835      -690.8665669183  5.48E-06
    15 Broy./Diag. 0.10E+00   10.9     0.00004280      -690.8665713539 -4.44E-06
    16 Broy./Diag. 0.10E+00   10.9     0.00002455      -690.8665676053  3.75E-06
    17 Broy./Diag. 0.10E+00   11.0     0.00001262      -690.8665685879 -9.83E-07
    18 Broy./Diag. 0.10E+00   11.0     0.00014615      -690.8665605045  8.08E-06
    19 Broy./Diag. 0.10E+00   11.0     0.00007578      -690.8665822902 -2.18E-05
    20 Broy./Diag. 0.10E+00   11.0     0.00001440      -690.8665719158  1.04E-05
    21 Broy./Diag. 0.10E+00   10.9     0.00004394      -690.8665692596  2.66E-06
    22 Broy./Diag. 0.10E+00   10.9     0.00003670      -690.8665791745 -9.91E-06
    23 Broy./Diag. 0.10E+00   10.9     0.00001422      -690.8665758375  3.34E-06
    24 Broy./Diag. 0.10E+00   10.9     0.00002152      -690.8665716412  4.20E-06
    25 Broy./Diag. 0.10E+00   10.8     0.00001506      -690.8665754864 -3.85E-06
    26 Broy./Diag. 0.10E+00   10.9     0.00023473      -690.8665729797  2.51E-06
    27 Broy./Diag. 0.10E+00   10.9     0.00002774      -690.8665743123 -1.33E-06
    28 Broy./Diag. 0.10E+00   10.9     0.00005659      -690.8665724398  1.87E-06
    29 Broy./Diag. 0.10E+00   11.0     0.00010317      -690.8665759558 -3.52E-06
    30 Broy./Diag. 0.10E+00   10.9     0.00002060      -690.8665694933  6.46E-06
    31 Broy./Diag. 0.10E+00   10.9     0.00007889      -690.8665709361 -1.44E-06
    32 Broy./Diag. 0.10E+00   10.9     0.00001833      -690.8665788758 -7.94E-06
    33 Broy./Diag. 0.10E+00   10.9     0.00014054      -690.8665810182 -2.14E-06
    34 Broy./Diag. 0.10E+00   11.0     0.00001755      -690.8665632381  1.78E-05
    35 Broy./Diag. 0.10E+00   11.0     0.00000748      -690.8665696072 -6.37E-06
    36 Broy./Diag. 0.10E+00   10.9     0.00018802      -690.8665672050  2.40E-06
    37 Broy./Diag. 0.10E+00   11.0     0.00000963      -690.8665677851 -5.80E-07
    38 Broy./Diag. 0.10E+00   11.0     0.00003724      -690.8665647760  3.01E-06
    39 Broy./Diag. 0.10E+00   10.9     0.00000466      -690.8665719718 -7.20E-06
    40 Broy./Diag. 0.10E+00   10.8     0.00005642      -690.8665743878 -2.42E-06
    41 Broy./Diag. 0.10E+00   10.9     0.00001513      -690.8665612856  1.31E-05
    42 Broy./Diag. 0.10E+00   10.9     0.00004020      -690.8665682731 -6.99E-06
    43 Broy./Diag. 0.10E+00   10.9     0.00003427      -690.8665659873  2.29E-06
    44 Broy./Diag. 0.10E+00   10.9     0.00008685      -690.8665707591 -4.77E-06
    45 Broy./Diag. 0.10E+00   10.9     0.00004496      -690.8665655897  5.17E-06
    46 Broy./Diag. 0.10E+00   11.0     0.00002645      -690.8665677947 -2.21E-06
    47 Broy./Diag. 0.10E+00   11.0     0.00000849      -690.8665710455 -3.25E-06
    48 Broy./Diag. 0.10E+00   10.8     0.00000595      -690.8665684802  2.57E-06
    49 Broy./Diag. 0.10E+00   10.8     0.00001096      -690.8665740159 -5.54E-06
    50 Broy./Diag. 0.10E+00   11.0     0.00006747      -690.8665743480 -3.32E-07
    51 Broy./Diag. 0.10E+00   11.0     0.00006544      -690.8665771639 -2.82E-06
    52 Broy./Diag. 0.10E+00   10.9     0.00017794      -690.8665695601  7.60E-06
    53 Broy./Diag. 0.10E+00   11.0     0.00000501      -690.8665804165 -1.09E-05
    54 Broy./Diag. 0.10E+00   10.9     0.00008095      -690.8665784084  2.01E-06
    55 Broy./Diag. 0.10E+00   11.0     0.00010543      -690.8665774957  9.13E-07
    56 Broy./Diag. 0.10E+00   10.9     0.00000786      -690.8665689660  8.53E-06
    57 Broy./Diag. 0.10E+00   10.9     0.00001728      -690.8665695123 -5.46E-07
    58 Broy./Diag. 0.10E+00   10.9     0.00005648      -690.8665670550  2.46E-06
    59 Broy./Diag. 0.10E+00   10.9     0.00001080      -690.8665691886 -2.13E-06
    60 Broy./Diag. 0.10E+00   11.0     0.00001750      -690.8665679290  1.26E-06
    61 Broy./Diag. 0.10E+00   10.9     0.00000597      -690.8665700975 -2.17E-06
    62 Broy./Diag. 0.10E+00   11.0     0.00013200      -690.8665660428  4.05E-06
    63 Broy./Diag. 0.10E+00   10.9     0.00000360      -690.8665754420 -9.40E-06
    64 Broy./Diag. 0.10E+00   10.9     0.00000919      -690.8665762493 -8.07E-07
    65 Broy./Diag. 0.10E+00   10.9     0.00003011      -690.8665800896 -3.84E-06
    66 Broy./Diag. 0.10E+00   10.9     0.00000530      -690.8665801039 -1.43E-08
    67 Broy./Diag. 0.10E+00   10.9     0.00023518      -690.8665809602 -8.56E-07
    68 Broy./Diag. 0.10E+00   10.9     0.00003885      -690.8665688775  1.21E-05
    69 Broy./Diag. 0.10E+00   11.0     0.00001448      -690.8665664379  2.44E-06
    70 Broy./Diag. 0.10E+00   11.0     0.00000538      -690.8665678189 -1.38E-06
    71 Broy./Diag. 0.10E+00   10.9     0.00001723      -690.8665694744 -1.66E-06
    72 Broy./Diag. 0.10E+00   10.9     0.00002717      -690.8665701074 -6.33E-07
    73 Broy./Diag. 0.10E+00   10.9     0.00002526      -690.8665779568 -7.85E-06
    74 Broy./Diag. 0.10E+00   11.0     0.00000878      -690.8665698126  8.14E-06
    75 Broy./Diag. 0.10E+00   10.9     0.00000529      -690.8665657190  4.09E-06
    76 Broy./Diag. 0.10E+00   10.9     0.00000956      -690.8665723858 -6.67E-06
    77 Broy./Diag. 0.10E+00   10.9     0.00013736      -690.8665755851 -3.20E-06
    78 Broy./Diag. 0.10E+00   11.0     0.00007258      -690.8665713551  4.23E-06
    79 Broy./Diag. 0.10E+00   10.8     0.00000948      -690.8665819239 -1.06E-05
    80 Broy./Diag. 0.10E+00   10.8     0.00003039      -690.8665768074  5.12E-06
    81 Broy./Diag. 0.10E+00   10.9     0.00002245      -690.8665629602  1.38E-05
    82 Broy./Diag. 0.10E+00   11.0     0.00000765      -690.8665680043 -5.04E-06
    83 Broy./Diag. 0.10E+00   11.0     0.00000848      -690.8665685149 -5.11E-07
    84 Broy./Diag. 0.10E+00   10.9     0.00005289      -690.8665710006 -2.49E-06
    85 Broy./Diag. 0.10E+00   10.9     0.00008413      -690.8665750517 -4.05E-06
    86 Broy./Diag. 0.10E+00   11.0     0.00000062      -690.8665668310  8.22E-06
    87 Broy./Diag. 0.10E+00   10.9     0.00008135      -690.8665662324  5.99E-07
    88 Broy./Diag. 0.10E+00   10.9     0.00002435      -690.8665662631 -3.07E-08
    89 Broy./Diag. 0.10E+00   10.9     0.00002145      -690.8665671428 -8.80E-07
    90 Broy./Diag. 0.10E+00   11.0     0.00007010      -690.8665724789 -5.34E-06
    91 Broy./Diag. 0.10E+00   10.9     0.00007987      -690.8665741415 -1.66E-06
    92 Broy./Diag. 0.10E+00   11.0     0.00002617      -690.8665639378  1.02E-05
    93 Broy./Diag. 0.10E+00   10.9     0.00006852      -690.8665675046 -3.57E-06
    94 Broy./Diag. 0.10E+00   10.9     0.00029473      -690.8665652725  2.23E-06
    95 Broy./Diag. 0.10E+00   10.9     0.00002800      -690.8665657115 -4.39E-07
    96 Broy./Diag. 0.10E+00   10.9     0.00009073      -690.8665691871 -3.48E-06
    97 Broy./Diag. 0.10E+00   10.9     0.00017662      -690.8665703381 -1.15E-06
    98 Broy./Diag. 0.10E+00   10.9     0.00037023      -690.8665724876 -2.15E-06
    99 Broy./Diag. 0.10E+00   10.9     0.00003790      -690.8665785552 -6.07E-06
   100 Broy./Diag. 0.10E+00   10.9     0.00029386      -690.8665834390 -4.88E-06
   101 Broy./Diag. 0.10E+00   11.0     0.00004671      -690.8665763975  7.04E-06
   102 Broy./Diag. 0.10E+00   10.9     0.00000635      -690.8665677952  8.60E-06
   103 Broy./Diag. 0.10E+00   10.8     0.00012178      -690.8665686635 -8.68E-07
   104 Broy./Diag. 0.10E+00   10.9     0.00002630      -690.8665642887  4.37E-06
   105 Broy./Diag. 0.10E+00   10.9     0.00001074      -690.8665736108 -9.32E-06
   106 Broy./Diag. 0.10E+00   11.0     0.00003044      -690.8665720237  1.59E-06
   107 Broy./Diag. 0.10E+00   10.9     0.00004827      -690.8665687003  3.32E-06
   108 Broy./Diag. 0.10E+00   10.9     0.00000534      -690.8665655845  3.12E-06
   109 Broy./Diag. 0.10E+00   11.0     0.00000366      -690.8665684872 -2.90E-06
   110 Broy./Diag. 0.10E+00   11.0     0.00006475      -690.8665698280 -1.34E-06
   111 Broy./Diag. 0.10E+00   10.8     0.00005690      -690.8665767724 -6.94E-06
   112 Broy./Diag. 0.10E+00   10.8     0.00003733      -690.8665672960  9.48E-06
   113 Broy./Diag. 0.10E+00   10.9     0.00002190      -690.8665666008  6.95E-07
   114 Broy./Diag. 0.10E+00   11.0     0.00002075      -690.8665758307 -9.23E-06
   115 Broy./Diag. 0.10E+00   10.9     0.00013525      -690.8665732639  2.57E-06
   116 Broy./Diag. 0.10E+00   10.9     0.00005105      -690.8665735889 -3.25E-07
   117 Broy./Diag. 0.10E+00   10.9     0.00000795      -690.8665773439 -3.76E-06
   118 Broy./Diag. 0.10E+00   10.9     0.00023790      -690.8665718100  5.53E-06
   119 Broy./Diag. 0.10E+00   10.9     0.00002837      -690.8665951048 -2.33E-05
   120 Broy./Diag. 0.10E+00   10.8     0.00003733      -690.8665922075  2.90E-06
   121 Broy./Diag. 0.10E+00   10.8     0.00021417      -690.8665971536 -4.95E-06
   122 Broy./Diag. 0.10E+00   11.0     0.00021906      -690.8665884305  8.72E-06
   123 Broy./Diag. 0.10E+00   10.9     0.00006538      -690.8665968702 -8.44E-06
   124 Broy./Diag. 0.10E+00   11.0     0.00018115      -690.8665935300  3.34E-06
   125 Broy./Diag. 0.10E+00   11.0     0.00021201      -690.8665857977  7.73E-06
   126 Broy./Diag. 0.10E+00   10.9     0.00002965      -690.8665841995  1.60E-06
   127 Broy./Diag. 0.10E+00   10.9     0.00000761      -690.8665889114 -4.71E-06
   128 Broy./Diag. 0.10E+00   10.9     0.00003889      -690.8665841267  4.78E-06
   129 Broy./Diag. 0.10E+00   10.8     0.00003921      -690.8665841631 -3.64E-08
   130 Broy./Diag. 0.10E+00   10.9     0.00001917      -690.8665867614 -2.60E-06
   131 Broy./Diag. 0.10E+00   10.9     0.00006575      -690.8665851839  1.58E-06
   132 Broy./Diag. 0.10E+00   11.0     0.00005556      -690.8665983575 -1.32E-05
   133 Broy./Diag. 0.10E+00   10.9     0.00008062      -690.8665847198  1.36E-05
   134 Broy./Diag. 0.10E+00   10.9     0.00003313      -690.8665843892  3.31E-07
   135 Broy./Diag. 0.10E+00   10.9     0.00002330      -690.8665850902 -7.01E-07
   136 Broy./Diag. 0.10E+00   10.9     0.00009508      -690.8665890742 -3.98E-06
   137 Broy./Diag. 0.10E+00   10.9     0.00003949      -690.8665880589  1.02E-06
   138 Broy./Diag. 0.10E+00   10.9     0.00000643      -690.8665824904  5.57E-06
   139 Broy./Diag. 0.10E+00   10.9     0.00000200      -690.8665803970  2.09E-06
   140 Broy./Diag. 0.10E+00   10.9     0.00000744      -690.8665808561 -4.59E-07
   141 Broy./Diag. 0.10E+00   10.9     0.00008890      -690.8665811836 -3.27E-07
   142 Broy./Diag. 0.10E+00   11.0     0.00011369      -690.8665871238 -5.94E-06
   143 Broy./Diag. 0.10E+00   10.9     0.00008899      -690.8665929350 -5.81E-06
   144 Broy./Diag. 0.10E+00   10.9     0.00004208      -690.8665894791  3.46E-06
   145 Broy./Diag. 0.10E+00   10.9     0.00007386      -690.8665969889 -7.51E-06
   146 Broy./Diag. 0.10E+00   10.9     0.00001496      -690.8666063306 -9.34E-06
   147 Broy./Diag. 0.10E+00   10.9     0.00005667      -690.8665912929  1.50E-05
   148 Broy./Diag. 0.10E+00   10.9     0.00011563      -690.8666020154 -1.07E-05
   149 Broy./Diag. 0.10E+00   10.9     0.00002671      -690.8666038984 -1.88E-06
   150 Broy./Diag. 0.10E+00   11.0     0.00002032      -690.8666008151  3.08E-06
   151 Broy./Diag. 0.10E+00   10.9     0.00000794      -690.8665966154  4.20E-06
   152 Broy./Diag. 0.10E+00   10.8     0.00000481      -690.8665974748 -8.59E-07
   153 Broy./Diag. 0.10E+00   10.9     0.00006062      -690.8665982287 -7.54E-07
   154 Broy./Diag. 0.10E+00   10.9     0.00000540      -690.8666018080 -3.58E-06
   155 Broy./Diag. 0.10E+00   11.0     0.00000567      -690.8666008936  9.14E-07
   156 Broy./Diag. 0.10E+00   10.9     0.00002042      -690.8666001232  7.70E-07
   157 Broy./Diag. 0.10E+00   10.9     0.00000456      -690.8666000151  1.08E-07
   158 Broy./Diag. 0.10E+00   11.0     0.00002091      -690.8665999351  7.99E-08
   159 Broy./Diag. 0.10E+00   10.9     0.00005766      -690.8665994977  4.37E-07
   160 Broy./Diag. 0.10E+00   10.8     0.00008018      -690.8666023401 -2.84E-06
   161 Broy./Diag. 0.10E+00   10.9     0.00036769      -690.8666039580 -1.62E-06
   162 Broy./Diag. 0.10E+00   11.0     0.00001124      -690.8665936778  1.03E-05
   163 Broy./Diag. 0.10E+00   11.0     0.00001329      -690.8665903391  3.34E-06
   164 Broy./Diag. 0.10E+00   10.9     0.00004692      -690.8665953259 -4.99E-06
   165 Broy./Diag. 0.10E+00   10.9     0.00005411      -690.8665979026 -2.58E-06
   166 Broy./Diag. 0.10E+00   10.9     0.00000791      -690.8665963494  1.55E-06
   167 Broy./Diag. 0.10E+00   10.9     0.00001432      -690.8665908730  5.48E-06
   168 Broy./Diag. 0.10E+00   10.9     0.00002585      -690.8665944582 -3.59E-06
   169 Broy./Diag. 0.10E+00   10.8     0.00001309      -690.8665946450 -1.87E-07
   170 Broy./Diag. 0.10E+00   10.9     0.00000975      -690.8665933526  1.29E-06
   171 Broy./Diag. 0.10E+00   10.9     0.00010970      -690.8665916931  1.66E-06
   172 Broy./Diag. 0.10E+00   10.9     0.00000652      -690.8665845892  7.10E-06
   173 Broy./Diag. 0.10E+00   11.0     0.00000312      -690.8665834383  1.15E-06
   174 Broy./Diag. 0.10E+00   10.9     0.00015126      -690.8665840446 -6.06E-07
-------------------------------------------------------
Primary job  terminated normally, but 1 process returned
a non-zero exit code. Per user-direction, the job has been aborted.
-------------------------------------------------------
