 DBCSR| Multiplication driver                                               XSMM
 DBCSR| Multrec recursion limit                                              512
 DBCSR| Multiplication stack size                                           1000
 DBCSR| Maximum elements for images                                    UNLIMITED
 DBCSR| Multiplicative factor virtual images                                   1
 DBCSR| Multiplication size stacks                                             3
 DBCSR| Number of 3D layers                                               SINGLE
 DBCSR| Use MPI memory allocation                                              T
 DBCSR| Use RMA algorithm                                                      F
 DBCSR| Use Communication thread                                               T
 DBCSR| Communication thread load                                             87


  **** **** ******  **  PROGRAM STARTED AT               2024-07-19 16:51:56.479
 ***** ** ***  *** **   PROGRAM STARTED ON                            sebnode131
 **    ****   ******    PROGRAM STARTED BY                                luehrs
 ***** **    ** ** **   PROGRAM PROCESS ID                                320212
  **** **  *******  **  PROGRAM STARTED IN /home/luehrs/PhD/Sodium_batteries/Sod
                                           ium-graphene-edge/Zig_zag_3/Hydrogen

 CP2K| version string:                    CP2K version 7.0 (Development Version)
 CP2K| source code revision number:                                             
 CP2K| cp2kflags: libint fftw3 libxc parallel mpi3 scalapack xsmm libderiv_max_a
 CP2K|            m1=8 libint_max_am=9 max_contr=4
 CP2K| is freely available from                            https://www.cp2k.org/
 CP2K| Program compiled at                         Sun Jun 24 14:37:16 CEST 2018
 CP2K| Program compiled on                                            sebstorage
 CP2K| Program compiled for                                Linux-x86-64-gfortran
 CP2K| Data directory path    /home/brehm/Software_Batchnode/2018/Source/cp2k_18
 CP2K| Input file name                                         input.zig-zag.inp

 GLOBAL| Force Environment number                                              1
 GLOBAL| Basis set file name                                      ./BASIS_MOLOPT
 GLOBAL| Potential file name                                    ./GTH_POTENTIALS
 GLOBAL| MM Potential file name                                     MM_POTENTIAL
 GLOBAL| Coordinate file name              graphene_hydrogen_zig-zag_relaxed.xyz
 GLOBAL| Method name                                                        CP2K
 GLOBAL| Project name                                      graphene_zig_zag_BSSE
 GLOBAL| Preferred FFT library                                             FFTW3
 GLOBAL| Preferred diagonalization lib.                                       SL
 GLOBAL| Run type                                                           BSSE
 GLOBAL| All-to-all communication in single precision                          F
 GLOBAL| FFTs using library dependent lengths                                  F
 GLOBAL| Global print level                                                  LOW
 GLOBAL| Total number of message passing processes                            16
 GLOBAL| Number of threads for this process                                    1
 GLOBAL| This output is from process                                           0
 GLOBAL| CPU model name :  AMD EPYC 7513 32-Core Processor

 MEMORY| system memory details [Kb]
 MEMORY|                        rank 0           min           max       average
 MEMORY| MemTotal            131901556     131901556     131901556     131901556
 MEMORY| MemFree              20540628      20540628      20540628      20540628
 MEMORY| Buffers                 16960         16960         16960         16960
 MEMORY| Cached               15501700      15501700      15501700      15501700
 MEMORY| Slab                  1124044       1124044       1124044       1124044
 MEMORY| SReclaimable           294124        294124        294124        294124
 MEMORY| MemLikelyFree        36353412      36353412      36353412      36353412


 GENERATE|  Preliminary Number of Bonds generated:                             0
 GENERATE|  Achieved consistency in connectivity generation.

 *******************************************************************************
 *******************************************************************************
 **                                                                           **
 **     #####                         ##              ##                      **
 **    ##   ##            ##          ##              ##                      **
 **   ##     ##                       ##            ######                    **
 **   ##     ##  ##   ##  ##   #####  ##  ##   ####   ##    #####    #####    **
 **   ##     ##  ##   ##  ##  ##      ## ##   ##      ##   ##   ##  ##   ##   **
 **   ##  ## ##  ##   ##  ##  ##      ####     ###    ##   ######   ######    **
 **    ##  ###   ##   ##  ##  ##      ## ##      ##   ##   ##       ##        **
 **     #######   #####   ##   #####  ##  ##  ####    ##    #####   ##        **
 **           ##                                                    ##        **
 **                                                                           **
 **                                                ... make the atoms dance   **
 **                                                                           **
 **            Copyright (C) by CP2K developers group (2000 - 2018)           **
 **                                                                           **
 *******************************************************************************


 TOTAL NUMBERS AND MAXIMUM NUMBERS

  Total number of            - Atomic kinds:                                   3
                             - Atoms:                                        129
                             - Shell sets:                                   129
                             - Shells:                                       613
                             - Primitive Cartesian functions:                647
                             - Cartesian basis functions:                   1657
                             - Spherical basis functions:                   1545

  Maximum angular momentum of- Orbital basis functions:                        2
                             - Local part of the GTH pseudopotential:          2
                             - Non-local part of the GTH pseudopotential:      1


 SCF PARAMETERS         Density guess:                                    ATOMIC
                        --------------------------------------------------------
                        max_scf:                                             400
                        max_scf_history:                                       0
                        max_diis:                                              4
                        --------------------------------------------------------
                        eps_scf:                                        3.00E-07
                        eps_scf_history:                                0.00E+00
                        eps_diis:                                       1.00E-01
                        eps_eigval:                                     1.00E-05
                        --------------------------------------------------------
                        level_shift [a.u.]:                                 0.00
                        added MOs                                       100  100
                        --------------------------------------------------------
                        Mixing method:                            BROYDEN_MIXING
                                                charge density mixing in g-space
                        --------------------------------------------------------
                        Smear method:                                FERMI_DIRAC
                        Electronic temperature [K]:                        300.0
                        Electronic temperature [a.u.]:                  9.50E-04
                        Accuracy threshold:                             1.00E-10
                        --------------------------------------------------------
                        Outer loop SCF in use 
                        No variables optimised in outer loop
                        eps_scf                                         1.00E-06
                        max_scf                                              100
                        DIIS optimization
                        DIIS buffer length                                     3
                        step_size                                       5.00E-01

 -------------------------------------------------------------------------------
 -                                                                             -
 -  BSSE CALCULATION         FRAGMENT CONF: 10        FRAGMENT SUBCONF: 10     -
 -                           CHARGE =     0           MULTIPLICITY =     0     -
 -                                                                             -
 -                 ATOM INDEX                              ATOM NAME           -
 -                 ----------                              ---------           -
 -                      1                                   C                  -
 -                      2                                   C                  -
 -                      3                                   C                  -
 -                      4                                   C                  -
 -                      5                                   C                  -
 -                      6                                   C                  -
 -                      7                                   C                  -
 -                      8                                   C                  -
 -                      9                                   C                  -
 -                     10                                   C                  -
 -                     11                                   C                  -
 -                     12                                   C                  -
 -                     13                                   C                  -
 -                     14                                   C                  -
 -                     15                                   C                  -
 -                     16                                   C                  -
 -                     17                                   C                  -
 -                     18                                   C                  -
 -                     19                                   C                  -
 -                     20                                   C                  -
 -                     21                                   C                  -
 -                     22                                   C                  -
 -                     23                                   C                  -
 -                     24                                   C                  -
 -                     25                                   C                  -
 -                     26                                   C                  -
 -                     27                                   C                  -
 -                     28                                   C                  -
 -                     29                                   C                  -
 -                     30                                   C                  -
 -                     31                                   C                  -
 -                     32                                   C                  -
 -                     33                                   C                  -
 -                     34                                   C                  -
 -                     35                                   C                  -
 -                     36                                   C                  -
 -                     37                                   C                  -
 -                     38                                   C                  -
 -                     39                                   C                  -
 -                     40                                   C                  -
 -                     41                                   C                  -
 -                     42                                   C                  -
 -                     43                                   C                  -
 -                     44                                   C                  -
 -                     45                                   C                  -
 -                     46                                   C                  -
 -                     47                                   C                  -
 -                     48                                   C                  -
 -                     49                                   C                  -
 -                     50                                   C                  -
 -                     51                                   C                  -
 -                     52                                   C                  -
 -                     53                                   C                  -
 -                     54                                   C                  -
 -                     55                                   C                  -
 -                     56                                   C                  -
 -                     57                                   C                  -
 -                     58                                   C                  -
 -                     59                                   C                  -
 -                     60                                   C                  -
 -                     61                                   C                  -
 -                     62                                   C                  -
 -                     63                                   C                  -
 -                     64                                   C                  -
 -                     65                                   C                  -
 -                     66                                   C                  -
 -                     67                                   C                  -
 -                     68                                   C                  -
 -                     69                                   C                  -
 -                     70                                   C                  -
 -                     71                                   C                  -
 -                     72                                   C                  -
 -                     73                                   C                  -
 -                     74                                   C                  -
 -                     75                                   C                  -
 -                     76                                   C                  -
 -                     77                                   C                  -
 -                     78                                   C                  -
 -                     79                                   C                  -
 -                     80                                   C                  -
 -                     81                                   C                  -
 -                     82                                   C                  -
 -                     83                                   C                  -
 -                     84                                   C                  -
 -                     85                                   C                  -
 -                     86                                   C                  -
 -                     87                                   C                  -
 -                     88                                   C                  -
 -                     89                                   C                  -
 -                     90                                   C                  -
 -                     91                                   C                  -
 -                     92                                   C                  -
 -                     93                                   C                  -
 -                     94                                   C                  -
 -                     95                                   C                  -
 -                     96                                   C                  -
 -                     97                                   C                  -
 -                     98                                   C                  -
 -                     99                                   C                  -
 -                    100                                   C                  -
 -                    101                                   C                  -
 -                    102                                   C                  -
 -                    103                                   C                  -
 -                    104                                   C                  -
 -                    105                                   C                  -
 -                    106                                   C                  -
 -                    107                                   C                  -
 -                    108                                   C                  -
 -                    109                                   C                  -
 -                    110                                   C                  -
 -                    111                                   C                  -
 -                    112                                   C                  -
 -                    113                                   H                  -
 -                    114                                   H                  -
 -                    115                                   H                  -
 -                    116                                   H                  -
 -                    117                                   H                  -
 -                    118                                   H                  -
 -                    119                                   H                  -
 -                    120                                   H                  -
 -                    121                                   H                  -
 -                    122                                   H                  -
 -                    123                                   H                  -
 -                    124                                   H                  -
 -                    125                                   H                  -
 -                    126                                   H                  -
 -                    127                                   H                  -
 -                    128                                   H                  -
 -------------------------------------------------------------------------------

 *******************************************************************************
 *******************************************************************************
 **                                                                           **
 **     #####                         ##              ##                      **
 **    ##   ##            ##          ##              ##                      **
 **   ##     ##                       ##            ######                    **
 **   ##     ##  ##   ##  ##   #####  ##  ##   ####   ##    #####    #####    **
 **   ##     ##  ##   ##  ##  ##      ## ##   ##      ##   ##   ##  ##   ##   **
 **   ##  ## ##  ##   ##  ##  ##      ####     ###    ##   ######   ######    **
 **    ##  ###   ##   ##  ##  ##      ## ##      ##   ##   ##       ##        **
 **     #######   #####   ##   #####  ##  ##  ####    ##    #####   ##        **
 **           ##                                                    ##        **
 **                                                                           **
 **                                                ... make the atoms dance   **
 **                                                                           **
 **            Copyright (C) by CP2K developers group (2000 - 2018)           **
 **                                                                           **
 *******************************************************************************


 TOTAL NUMBERS AND MAXIMUM NUMBERS

  Total number of            - Atomic kinds:                                   2
                             - Atoms:                                        128
                             - Shell sets:                                   128
                             - Shells:                                       608
                             - Primitive Cartesian functions:                640
                             - Cartesian basis functions:                   1648
                             - Spherical basis functions:                   1536

  Maximum angular momentum of- Orbital basis functions:                        2
                             - Local part of the GTH pseudopotential:          2
                             - Non-local part of the GTH pseudopotential:      0


 SCF PARAMETERS         Density guess:                                    ATOMIC
                        --------------------------------------------------------
                        max_scf:                                             400
                        max_scf_history:                                       0
                        max_diis:                                              4
                        --------------------------------------------------------
                        eps_scf:                                        3.00E-07
                        eps_scf_history:                                0.00E+00
                        eps_diis:                                       1.00E-01
                        eps_eigval:                                     1.00E-05
                        --------------------------------------------------------
                        level_shift [a.u.]:                                 0.00
                        added MOs                                       100  100
                        --------------------------------------------------------
                        Mixing method:                            BROYDEN_MIXING
                                                charge density mixing in g-space
                        --------------------------------------------------------
                        Smear method:                                FERMI_DIRAC
                        Electronic temperature [K]:                        300.0
                        Electronic temperature [a.u.]:                  9.50E-04
                        Accuracy threshold:                             1.00E-10
                        --------------------------------------------------------
                        Outer loop SCF in use 
                        No variables optimised in outer loop
                        eps_scf                                         1.00E-06
                        max_scf                                              100
                        DIIS optimization
                        DIIS buffer length                                     3
                        step_size                                       5.00E-01

 Spin 1

 Number of electrons:                                                        232
 Number of occupied orbitals:                                                232
 Number of molecular orbitals:                                               332

 Spin 2

 Number of electrons:                                                        232
 Number of occupied orbitals:                                                232
 Number of molecular orbitals:                                               332

 Number of orbital functions:                                               1536
 Number of independent orbital functions:                                   1536

 Extrapolation method: initial_guess


 SCF WAVEFUNCTION OPTIMIZATION

  Step     Update method      Time    Convergence         Total energy    Change
  ------------------------------------------------------------------------------
     1 NoMix/Diag. 0.10E+00    4.1     0.45107924      -636.4164223400 -6.36E+02
     2 Broy./Diag. 0.10E+00    7.9     0.04873670      -609.9994693105  2.64E+01
     3 Broy./Diag. 0.10E+00    7.7     0.14140473      -624.0969567424 -1.41E+01
     4 Broy./Diag. 0.10E+00    8.0     7.62119335      -637.3963755174 -1.33E+01
     5 Broy./Diag. 0.10E+00    7.7     7.62114521      -616.9475589278  2.04E+01
     6 Broy./Diag. 0.10E+00    8.0     7.54112246      -641.0907562051 -2.41E+01
     7 Broy./Diag. 0.10E+00    8.0     7.54111881      -618.4411514006  2.26E+01
     8 Broy./Diag. 0.10E+00    8.6     7.68249005      -641.5206678669 -2.31E+01
     9 Broy./Diag. 0.10E+00    8.2     7.68249160      -594.9997450484  4.65E+01
    10 Broy./Diag. 0.10E+00    8.9     7.57648082      -641.6546162228 -4.67E+01
    11 Broy./Diag. 0.10E+00    8.1     7.57647843      -589.8107681594  5.18E+01
    12 Broy./Diag. 0.10E+00    9.3     7.61522502      -641.8228570110 -5.20E+01
    13 Broy./Diag. 0.10E+00    8.7     7.61522275      -575.0342693751  6.68E+01
    14 Broy./Diag. 0.10E+00    9.0     7.60277533      -641.7278766803 -6.67E+01
    15 Broy./Diag. 0.10E+00    9.0     7.60277180      -597.6183134687  4.41E+01
    16 Broy./Diag. 0.10E+00    8.6     7.59272190      -641.9446174832 -4.43E+01
    17 Broy./Diag. 0.10E+00    9.1     7.59741502      -597.6641652091  4.43E+01
    18 Broy./Diag. 0.10E+00    8.5     7.70982981      -642.0979848782 -4.44E+01
    19 Broy./Diag. 0.10E+00    9.2     7.70982870      -574.3153535022  6.78E+01
    20 Broy./Diag. 0.10E+00    8.9     0.00300300      -642.1854054698 -6.79E+01
    21 Broy./Diag. 0.10E+00    8.9     0.02383531      -642.2589091586 -7.35E-02
    22 Broy./Diag. 0.10E+00    9.2     0.00517044      -642.8486833868 -5.90E-01
    23 Broy./Diag. 0.10E+00    8.6     0.01810698      -642.9610710793 -1.12E-01
    24 Broy./Diag. 0.10E+00    9.5     0.00311364      -643.1868036583 -2.26E-01
    25 Broy./Diag. 0.10E+00    9.1     0.00256520      -643.2787093193 -9.19E-02
    26 Broy./Diag. 0.10E+00    9.2     0.00184785      -643.4568077295 -1.78E-01
    27 Broy./Diag. 0.10E+00    9.6     0.00301360      -643.5003262670 -4.35E-02
    28 Broy./Diag. 0.10E+00    8.4     0.00101410      -643.5908949424 -9.06E-02
    29 Broy./Diag. 0.10E+00    9.6     0.00386646      -643.5858138906  5.08E-03
    30 Broy./Diag. 0.10E+00    8.9     0.00038652      -643.6126731860 -2.69E-02
    31 Broy./Diag. 0.10E+00    8.9     0.00091120      -643.6175158834 -4.84E-03
    32 Broy./Diag. 0.10E+00    9.0     0.00091641      -643.6262069246 -8.69E-03
    33 Broy./Diag. 0.10E+00    8.7     0.00032099      -643.6269269359 -7.20E-04
    34 Broy./Diag. 0.10E+00    9.3     0.00052710      -643.6228664900  4.06E-03
    35 Broy./Diag. 0.10E+00    8.1     0.00045400      -643.6236288794 -7.62E-04
    36 Broy./Diag. 0.10E+00    9.2     0.00041977      -643.6393143762 -1.57E-02
    37 Broy./Diag. 0.10E+00    8.2     0.00054142      -643.6514774347 -1.22E-02
    38 Broy./Diag. 0.10E+00    9.1     0.00024097      -643.6588487582 -7.37E-03
    39 Broy./Diag. 0.10E+00    8.4     0.00041240      -643.6685246901 -9.68E-03
    40 Broy./Diag. 0.10E+00    8.9     0.00031675      -643.6751373717 -6.61E-03
    41 Broy./Diag. 0.10E+00    8.6     0.00018601      -643.6762900012 -1.15E-03
    42 Broy./Diag. 0.10E+00    8.7     0.00017927      -643.6770879508 -7.98E-04
    43 Broy./Diag. 0.10E+00    9.0     0.00007233      -643.6773021203 -2.14E-04
    44 Broy./Diag. 0.10E+00    8.8     0.00020507      -643.6779210002 -6.19E-04
    45 Broy./Diag. 0.10E+00    9.3     0.00005311      -643.6799443055 -2.02E-03
    46 Broy./Diag. 0.10E+00    8.3     0.00010762      -643.6790350221  9.09E-04
    47 Broy./Diag. 0.10E+00    9.3     0.00003319      -643.6785518050  4.83E-04
    48 Broy./Diag. 0.10E+00    9.0     0.00008156      -643.6775009979  1.05E-03
    49 Broy./Diag. 0.10E+00    9.2     0.00006558      -643.6769126700  5.88E-04
    50 Broy./Diag. 0.10E+00    9.3     0.00003314      -643.6761783956  7.34E-04
    51 Broy./Diag. 0.10E+00    8.5     0.00004149      -643.6748738362  1.30E-03
    52 Broy./Diag. 0.10E+00    9.5     0.00001909      -643.6744657251  4.08E-04
    53 Broy./Diag. 0.10E+00    8.9     0.00002431      -643.6751986476 -7.33E-04
    54 Broy./Diag. 0.10E+00    9.0     0.00001434      -643.6764669033 -1.27E-03
    55 Broy./Diag. 0.10E+00    9.4     0.00001902      -643.6769349946 -4.68E-04
    56 Broy./Diag. 0.10E+00    9.0     0.00000783      -643.6775765883 -6.42E-04
    57 Broy./Diag. 0.10E+00    9.6     0.00001177      -643.6779757236 -3.99E-04
    58 Broy./Diag. 0.10E+00    9.5     0.00000691      -643.6782247506 -2.49E-04
    59 Broy./Diag. 0.10E+00    9.2     0.00000335      -643.6781389799  8.58E-05
    60 Broy./Diag. 0.10E+00    9.5     0.00000864      -643.6780455789  9.34E-05
    61 Broy./Diag. 0.10E+00    8.3     0.00000334      -643.6780244126  2.12E-05
    62 Broy./Diag. 0.10E+00    9.4     0.00000404      -643.6780078962  1.65E-05
    63 Broy./Diag. 0.10E+00    9.0     0.00000428      -643.6779402767  6.76E-05
    64 Broy./Diag. 0.10E+00    8.6     0.00000103      -643.6778803069  6.00E-05
    65 Broy./Diag. 0.10E+00    8.8     0.00000324      -643.6777929958  8.73E-05
    66 Broy./Diag. 0.10E+00    9.0     0.00000075      -643.6776956682  9.73E-05
    67 Broy./Diag. 0.10E+00    9.1     0.00000218      -643.6777035417 -7.87E-06
    68 Broy./Diag. 0.10E+00    8.3     0.00000074      -643.6777491498 -4.56E-05
    69 Broy./Diag. 0.10E+00    9.2     0.00000069      -643.6777888249 -3.97E-05
    70 Broy./Diag. 0.10E+00    8.0     0.00000076      -643.6778228196 -3.40E-05
    71 Broy./Diag. 0.10E+00    9.3     0.00000063      -643.6778448733 -2.21E-05
    72 Broy./Diag. 0.10E+00    8.6     0.00000061      -643.6778449508 -7.75E-08
    73 Broy./Diag. 0.10E+00    9.1     0.00000064      -643.6778410139  3.94E-06
    74 Broy./Diag. 0.10E+00    8.7     0.00000023      -643.6778417841 -7.70E-07

  *** SCF run converged in    74 steps ***


  Electronic density on regular grids:       -463.9999999989        0.0000000011
  Core density on regular grids:              463.9999999995       -0.0000000005
  Total charge density on r-space grids:        0.0000000006
  Total charge density g-space grids:           0.0000000006

  Overlap energy of the core charge distribution:               0.00002384473555
  Self energy of the core charge distribution:              -1516.08847113961383
  Core Hamiltonian energy:                                    477.28666202594832
  Hartree energy:                                             593.21822601523638
  Exchange-correlation energy:                               -197.84431113556516
  Dispersion energy:                                           -0.24693397129903
  Electronic entropic energy:                                  -0.00303742414954
  Fermi energy:                                                -0.11235066330059

  Total energy:                                              -643.67784178408988

  outer SCF iter =    1 RMS gradient =   0.23E-06 energy =       -643.6778417841
  outer SCF loop converged in   1 iterations or   74 steps


  Integrated absolute spin density  :                               0.0000000000
  WARNING: S**2 computation does not yet treat fractional occupied orbitals

 *** WARNING in qs_loc_utils.F:1387 :: User requested the calculation of ***
 *** the localized wavefunction but the section LOCALIZE was not         ***
 *** specified. Localization will not be performed!                      ***


 -------------------------------------------------------------------------------
 -                                                                             -
 -  BSSE CALCULATION         FRAGMENT CONF: 01        FRAGMENT SUBCONF: 01     -
 -                           CHARGE =     0           MULTIPLICITY =     0     -
 -                                                                             -
 -                 ATOM INDEX                              ATOM NAME           -
 -                 ----------                              ---------           -
 -                    129                                   Na                 -
 -------------------------------------------------------------------------------

 *******************************************************************************
 *******************************************************************************
 **                                                                           **
 **     #####                         ##              ##                      **
 **    ##   ##            ##          ##              ##                      **
 **   ##     ##                       ##            ######                    **
 **   ##     ##  ##   ##  ##   #####  ##  ##   ####   ##    #####    #####    **
 **   ##     ##  ##   ##  ##  ##      ## ##   ##      ##   ##   ##  ##   ##   **
 **   ##  ## ##  ##   ##  ##  ##      ####     ###    ##   ######   ######    **
 **    ##  ###   ##   ##  ##  ##      ## ##      ##   ##   ##       ##        **
 **     #######   #####   ##   #####  ##  ##  ####    ##    #####   ##        **
 **           ##                                                    ##        **
 **                                                                           **
 **                                                ... make the atoms dance   **
 **                                                                           **
 **            Copyright (C) by CP2K developers group (2000 - 2018)           **
 **                                                                           **
 *******************************************************************************

 *** WARNING in qs_environment.F:1128 :: More added MOs requested for beta ***
 *** spin than available.                                                  ***


 *** WARNING in qs_environment.F:1142 :: More added MOs requested than ***
 *** available. The full set of unoccupied MOs will be used.           ***



 TOTAL NUMBERS AND MAXIMUM NUMBERS

  Total number of            - Atomic kinds:                                   1
                             - Atoms:                                          1
                             - Shell sets:                                     1
                             - Shells:                                         5
                             - Primitive Cartesian functions:                  7
                             - Cartesian basis functions:                      9
                             - Spherical basis functions:                      9

  Maximum angular momentum of- Orbital basis functions:                        1
                             - Local part of the GTH pseudopotential:          2
                             - Non-local part of the GTH pseudopotential:      1


 SCF PARAMETERS         Density guess:                                    ATOMIC
                        --------------------------------------------------------
                        max_scf:                                             400
                        max_scf_history:                                       0
                        max_diis:                                              4
                        --------------------------------------------------------
                        eps_scf:                                        3.00E-07
                        eps_scf_history:                                0.00E+00
                        eps_diis:                                       1.00E-01
                        eps_eigval:                                     1.00E-05
                        --------------------------------------------------------
                        level_shift [a.u.]:                                 0.00
                        added MOs                                         4    5
                        --------------------------------------------------------
                        Mixing method:                            BROYDEN_MIXING
                                                charge density mixing in g-space
                        --------------------------------------------------------
                        Smear method:                                FERMI_DIRAC
                        Electronic temperature [K]:                        300.0
                        Electronic temperature [a.u.]:                  9.50E-04
                        Accuracy threshold:                             1.00E-10
                        --------------------------------------------------------
                        Outer loop SCF in use 
                        No variables optimised in outer loop
                        eps_scf                                         1.00E-06
                        max_scf                                              100
                        DIIS optimization
                        DIIS buffer length                                     3
                        step_size                                       5.00E-01

 Spin 1

 Number of electrons:                                                          5
 Number of occupied orbitals:                                                  5
 Number of molecular orbitals:                                                 9

 Spin 2

 Number of electrons:                                                          4
 Number of occupied orbitals:                                                  4
 Number of molecular orbitals:                                                 9

 Number of orbital functions:                                                  9
 Number of independent orbital functions:                                      9

 Extrapolation method: initial_guess


 SCF WAVEFUNCTION OPTIMIZATION

  Step     Update method      Time    Convergence         Total energy    Change
  ------------------------------------------------------------------------------
     1 NoMix/Diag. 0.10E+00    2.3     0.36439765       -47.1683890720 -4.72E+01
     2 Broy./Diag. 0.10E+00    4.8     0.01267633       -47.1409497767  2.74E-02
     3 Broy./Diag. 0.10E+00    6.0     0.06965143       -47.1646170288 -2.37E-02
     4 Broy./Diag. 0.10E+00    5.3     0.00151966       -47.1485939843  1.60E-02
     5 Broy./Diag. 0.10E+00    5.4     0.00357015       -47.1592767453 -1.07E-02
     6 Broy./Diag. 0.10E+00    6.7     0.00108463       -47.1511276113  8.15E-03
     7 Broy./Diag. 0.10E+00    5.7     0.01244059       -47.1577799520 -6.65E-03
     8 Broy./Diag. 0.10E+00    6.4     0.00312812       -47.1696905459 -1.19E-02
     9 Broy./Diag. 0.10E+00    7.3     0.00347816       -47.1627226968  6.97E-03
    10 Broy./Diag. 0.10E+00    6.5     0.00374985       -47.1658343729 -3.11E-03
    11 Broy./Diag. 0.10E+00    7.2     0.00070207       -47.1675704539 -1.74E-03
    12 Broy./Diag. 0.10E+00    7.0     0.00181545       -47.1617159501  5.85E-03
    13 Broy./Diag. 0.10E+00    7.2     0.00088911       -47.1566592888  5.06E-03
    14 Broy./Diag. 0.10E+00    6.8     0.00129459       -47.1506724029  5.99E-03
    15 Broy./Diag. 0.10E+00    6.5     0.00021796       -47.1508708728 -1.98E-04
    16 Broy./Diag. 0.10E+00    7.7     0.00022140       -47.1517167962 -8.46E-04
    17 Broy./Diag. 0.10E+00    6.9     0.00030856       -47.1544608233 -2.74E-03
    18 Broy./Diag. 0.10E+00    6.8     0.00008444       -47.1543929020  6.79E-05
    19 Broy./Diag. 0.10E+00    7.2     0.00012696       -47.1509527947  3.44E-03
    20 Broy./Diag. 0.10E+00    7.0     0.00007895       -47.1524865571 -1.53E-03
    21 Broy./Diag. 0.10E+00    7.4     0.00028603       -47.1555244887 -3.04E-03
    22 Broy./Diag. 0.10E+00    6.4     0.00007971       -47.1573887023 -1.86E-03
    23 Broy./Diag. 0.10E+00    7.2     0.00015032       -47.1525761815  4.81E-03
    24 Broy./Diag. 0.10E+00    7.5     0.00004669       -47.1522547736  3.21E-04
    25 Broy./Diag. 0.10E+00    6.7     0.00026287       -47.1574452623 -5.19E-03
    26 Broy./Diag. 0.10E+00    7.2     0.00012734       -47.1586846447 -1.24E-03
    27 Broy./Diag. 0.10E+00    6.9     0.00025468       -47.1590883122 -4.04E-04
    28 Broy./Diag. 0.10E+00    7.1     0.00014605       -47.1590643041  2.40E-05
    29 Broy./Diag. 0.10E+00    7.0     0.00019557       -47.1604970419 -1.43E-03
    30 Broy./Diag. 0.10E+00    6.9     0.00026494       -47.1605199538 -2.29E-05
    31 Broy./Diag. 0.10E+00    7.5     0.00014420       -47.1597130413  8.07E-04
    32 Broy./Diag. 0.10E+00    6.7     0.00035576       -47.1598495272 -1.36E-04
    33 Broy./Diag. 0.10E+00    6.6     0.00011189       -47.1603911403 -5.42E-04
    34 Broy./Diag. 0.10E+00    7.0     0.00028599       -47.1600072784  3.84E-04
    35 Broy./Diag. 0.10E+00    6.8     0.00004329       -47.1596995450  3.08E-04
    36 Broy./Diag. 0.10E+00    7.4     0.00003129       -47.1596205506  7.90E-05
    37 Broy./Diag. 0.10E+00    6.3     0.00005317       -47.1595069536  1.14E-04
    38 Broy./Diag. 0.10E+00    6.8     0.00003159       -47.1592578786  2.49E-04
    39 Broy./Diag. 0.10E+00    6.9     0.00003582       -47.1591704240  8.75E-05
    40 Broy./Diag. 0.10E+00    6.7     0.00002937       -47.1592093128 -3.89E-05
    41 Broy./Diag. 0.10E+00    6.6     0.00001412       -47.1592950321 -8.57E-05
    42 Broy./Diag. 0.10E+00    7.0     0.00001262       -47.1592882316  6.80E-06
    43 Broy./Diag. 0.10E+00    6.8     0.00003503       -47.1592633323  2.49E-05
    44 Broy./Diag. 0.10E+00    7.0     0.00001032       -47.1591677867  9.55E-05
    45 Broy./Diag. 0.10E+00    6.4     0.00001464       -47.1592843140 -1.17E-04
    46 Broy./Diag. 0.10E+00    7.0     0.00001246       -47.1592650824  1.92E-05
    47 Broy./Diag. 0.10E+00    7.1     0.00001132       -47.1591308899  1.34E-04
    48 Broy./Diag. 0.10E+00    6.6     0.00000406       -47.1590948630  3.60E-05
    49 Broy./Diag. 0.10E+00    6.7     0.00000443       -47.1590863818  8.48E-06
    50 Broy./Diag. 0.10E+00    7.0     0.00000926       -47.1590866539 -2.72E-07
    51 Broy./Diag. 0.10E+00    6.5     0.00000641       -47.1590860412  6.13E-07
    52 Broy./Diag. 0.10E+00    6.6     0.00001234       -47.1591056012 -1.96E-05
    53 Broy./Diag. 0.10E+00    6.8     0.00002086       -47.1590994084  6.19E-06
    54 Broy./Diag. 0.10E+00    7.0     0.00001238       -47.1590997454 -3.37E-07
    55 Broy./Diag. 0.10E+00    6.6     0.00000939       -47.1591366250 -3.69E-05
    56 Broy./Diag. 0.10E+00    6.5     0.00002342       -47.1591662791 -2.97E-05
    57 Broy./Diag. 0.10E+00    6.4     0.00005374       -47.1591482379  1.80E-05
    58 Broy./Diag. 0.10E+00    7.1     0.00003309       -47.1592090532 -6.08E-05
    59 Broy./Diag. 0.10E+00    7.1     0.00000584       -47.1592305340 -2.15E-05
    60 Broy./Diag. 0.10E+00    6.3     0.00001061       -47.1592060769  2.45E-05
    61 Broy./Diag. 0.10E+00    7.1     0.00001977       -47.1591125085  9.36E-05
    62 Broy./Diag. 0.10E+00    7.0     0.00000921       -47.1590864564  2.61E-05
    63 Broy./Diag. 0.10E+00    6.7     0.00001100       -47.1591059630 -1.95E-05
    64 Broy./Diag. 0.10E+00    6.4     0.00000676       -47.1590554987  5.05E-05
    65 Broy./Diag. 0.10E+00    6.9     0.00000808       -47.1590779401 -2.24E-05
    66 Broy./Diag. 0.10E+00    6.8     0.00000329       -47.1590759364  2.00E-06
    67 Broy./Diag. 0.10E+00    6.7     0.00000428       -47.1591443608 -6.84E-05
    68 Broy./Diag. 0.10E+00    6.7     0.00000662       -47.1591604905 -1.61E-05
    69 Broy./Diag. 0.10E+00    7.4     0.00000869       -47.1591777713 -1.73E-05
    70 Broy./Diag. 0.10E+00    6.6     0.00000560       -47.1592320803 -5.43E-05
    71 Broy./Diag. 0.10E+00    6.5     0.00000222       -47.1592486126 -1.65E-05
    72 Broy./Diag. 0.10E+00    6.7     0.00000238       -47.1592607071 -1.21E-05
    73 Broy./Diag. 0.10E+00    6.9     0.00000184       -47.1592454491  1.53E-05
    74 Broy./Diag. 0.10E+00    6.4     0.00000955       -47.1590627047  1.83E-04
    75 Broy./Diag. 0.10E+00    6.8     0.00002041       -47.1589944126  6.83E-05
    76 Broy./Diag. 0.10E+00    6.8     0.00000458       -47.1590475717 -5.32E-05
    77 Broy./Diag. 0.10E+00    7.0     0.00001435       -47.1589938477  5.37E-05
    78 Broy./Diag. 0.10E+00    6.4     0.00000767       -47.1590067852 -1.29E-05
    79 Broy./Diag. 0.10E+00    7.0     0.00000556       -47.1590365731 -2.98E-05
    80 Broy./Diag. 0.10E+00    6.9     0.00001863       -47.1589889264  4.76E-05
    81 Broy./Diag. 0.10E+00    6.6     0.00000497       -47.1590388448 -4.99E-05
    82 Broy./Diag. 0.10E+00    6.4     0.00000799       -47.1590411017 -2.26E-06
    83 Broy./Diag. 0.10E+00    7.1     0.00000235       -47.1590102245  3.09E-05
    84 Broy./Diag. 0.10E+00    6.7     0.00000834       -47.1589727265  3.75E-05
    85 Broy./Diag. 0.10E+00    6.7     0.00000264       -47.1589873991 -1.47E-05
    86 Broy./Diag. 0.10E+00    6.7     0.00000293       -47.1589923585 -4.96E-06
    87 Broy./Diag. 0.10E+00    7.0     0.00000403       -47.1590136517 -2.13E-05
    88 Broy./Diag. 0.10E+00    6.6     0.00000277       -47.1589947299  1.89E-05
    89 Broy./Diag. 0.10E+00    6.5     0.00000165       -47.1589817576  1.30E-05
    90 Broy./Diag. 0.10E+00    6.9     0.00000216       -47.1589915419 -9.78E-06
    91 Broy./Diag. 0.10E+00    7.0     0.00000134       -47.1590088768 -1.73E-05
    92 Broy./Diag. 0.10E+00    6.4     0.00000290       -47.1590079460  9.31E-07
    93 Broy./Diag. 0.10E+00    6.8     0.00000284       -47.1590009997  6.95E-06
    94 Broy./Diag. 0.10E+00    7.2     0.00000454       -47.1590041916 -3.19E-06
    95 Broy./Diag. 0.10E+00    6.6     0.00000405       -47.1589976428  6.55E-06
    96 Broy./Diag. 0.10E+00    6.5     0.00000445       -47.1589913103  6.33E-06
    97 Broy./Diag. 0.10E+00    6.9     0.00000161       -47.1590080950 -1.68E-05
    98 Broy./Diag. 0.10E+00    7.0     0.00000089       -47.1590058403  2.25E-06
    99 Broy./Diag. 0.10E+00    6.5     0.00000124       -47.1589997885  6.05E-06
   100 Broy./Diag. 0.10E+00    6.6     0.00000592       -47.1589919956  7.79E-06
   101 Broy./Diag. 0.10E+00    7.2     0.00000362       -47.1589961893 -4.19E-06
   102 Broy./Diag. 0.10E+00    6.8     0.00000396       -47.1590076207 -1.14E-05
   103 Broy./Diag. 0.10E+00    6.5     0.00000085       -47.1590154437 -7.82E-06
   104 Broy./Diag. 0.10E+00    6.8     0.00000756       -47.1590148500  5.94E-07
   105 Broy./Diag. 0.10E+00    6.9     0.00000445       -47.1590281254 -1.33E-05
   106 Broy./Diag. 0.10E+00    6.6     0.00000206       -47.1590167770  1.13E-05
   107 Broy./Diag. 0.10E+00    6.7     0.00000020       -47.1590145484  2.23E-06

  *** SCF run converged in   107 steps ***


  Electronic density on regular grids:         -9.0001228395       -0.0001228395
  Core density on regular grids:                9.0000000000       -0.0000000000
  Total charge density on r-space grids:       -0.0001228395
  Total charge density g-space grids:          -0.0001228395

  Overlap energy of the core charge distribution:               0.00000000000000
  Self energy of the core charge distribution:                -96.60649019442629
  Core Hamiltonian energy:                                     29.74700434335158
  Hartree energy:                                              26.74413132376807
  Exchange-correlation energy:                                 -7.04365871501684
  Dispersion energy:                                           -0.00000130538029
  Electronic entropic energy:                                  -0.00000000066396
  Fermi energy:                                                -0.08382027939585

  Total energy:                                               -47.15901454836406

  outer SCF iter =    1 RMS gradient =   0.20E-06 energy =        -47.1590145484
  outer SCF loop converged in   1 iterations or  107 steps


  Integrated absolute spin density  :                               1.0000142605
  WARNING: S**2 computation does not yet treat fractional occupied orbitals

 *** WARNING in qs_loc_utils.F:1387 :: User requested the calculation of ***
 *** the localized wavefunction but the section LOCALIZE was not         ***
 *** specified. Localization will not be performed!                      ***


 -------------------------------------------------------------------------------
 -                                                                             -
 -  BSSE CALCULATION         FRAGMENT CONF: 11        FRAGMENT SUBCONF: 10     -
 -                           CHARGE =     0           MULTIPLICITY =     0     -
 -                                                                             -
 -                 ATOM INDEX                              ATOM NAME           -
 -                 ----------                              ---------           -
 -                      1                                   C                  -
 -                      2                                   C                  -
 -                      3                                   C                  -
 -                      4                                   C                  -
 -                      5                                   C                  -
 -                      6                                   C                  -
 -                      7                                   C                  -
 -                      8                                   C                  -
 -                      9                                   C                  -
 -                     10                                   C                  -
 -                     11                                   C                  -
 -                     12                                   C                  -
 -                     13                                   C                  -
 -                     14                                   C                  -
 -                     15                                   C                  -
 -                     16                                   C                  -
 -                     17                                   C                  -
 -                     18                                   C                  -
 -                     19                                   C                  -
 -                     20                                   C                  -
 -                     21                                   C                  -
 -                     22                                   C                  -
 -                     23                                   C                  -
 -                     24                                   C                  -
 -                     25                                   C                  -
 -                     26                                   C                  -
 -                     27                                   C                  -
 -                     28                                   C                  -
 -                     29                                   C                  -
 -                     30                                   C                  -
 -                     31                                   C                  -
 -                     32                                   C                  -
 -                     33                                   C                  -
 -                     34                                   C                  -
 -                     35                                   C                  -
 -                     36                                   C                  -
 -                     37                                   C                  -
 -                     38                                   C                  -
 -                     39                                   C                  -
 -                     40                                   C                  -
 -                     41                                   C                  -
 -                     42                                   C                  -
 -                     43                                   C                  -
 -                     44                                   C                  -
 -                     45                                   C                  -
 -                     46                                   C                  -
 -                     47                                   C                  -
 -                     48                                   C                  -
 -                     49                                   C                  -
 -                     50                                   C                  -
 -                     51                                   C                  -
 -                     52                                   C                  -
 -                     53                                   C                  -
 -                     54                                   C                  -
 -                     55                                   C                  -
 -                     56                                   C                  -
 -                     57                                   C                  -
 -                     58                                   C                  -
 -                     59                                   C                  -
 -                     60                                   C                  -
 -                     61                                   C                  -
 -                     62                                   C                  -
 -                     63                                   C                  -
 -                     64                                   C                  -
 -                     65                                   C                  -
 -                     66                                   C                  -
 -                     67                                   C                  -
 -                     68                                   C                  -
 -                     69                                   C                  -
 -                     70                                   C                  -
 -                     71                                   C                  -
 -                     72                                   C                  -
 -                     73                                   C                  -
 -                     74                                   C                  -
 -                     75                                   C                  -
 -                     76                                   C                  -
 -                     77                                   C                  -
 -                     78                                   C                  -
 -                     79                                   C                  -
 -                     80                                   C                  -
 -                     81                                   C                  -
 -                     82                                   C                  -
 -                     83                                   C                  -
 -                     84                                   C                  -
 -                     85                                   C                  -
 -                     86                                   C                  -
 -                     87                                   C                  -
 -                     88                                   C                  -
 -                     89                                   C                  -
 -                     90                                   C                  -
 -                     91                                   C                  -
 -                     92                                   C                  -
 -                     93                                   C                  -
 -                     94                                   C                  -
 -                     95                                   C                  -
 -                     96                                   C                  -
 -                     97                                   C                  -
 -                     98                                   C                  -
 -                     99                                   C                  -
 -                    100                                   C                  -
 -                    101                                   C                  -
 -                    102                                   C                  -
 -                    103                                   C                  -
 -                    104                                   C                  -
 -                    105                                   C                  -
 -                    106                                   C                  -
 -                    107                                   C                  -
 -                    108                                   C                  -
 -                    109                                   C                  -
 -                    110                                   C                  -
 -                    111                                   C                  -
 -                    112                                   C                  -
 -                    113                                   H                  -
 -                    114                                   H                  -
 -                    115                                   H                  -
 -                    116                                   H                  -
 -                    117                                   H                  -
 -                    118                                   H                  -
 -                    119                                   H                  -
 -                    120                                   H                  -
 -                    121                                   H                  -
 -                    122                                   H                  -
 -                    123                                   H                  -
 -                    124                                   H                  -
 -                    125                                   H                  -
 -                    126                                   H                  -
 -                    127                                   H                  -
 -                    128                                   H                  -
 -                    129                                   Na_ghost           -
 -------------------------------------------------------------------------------

 *******************************************************************************
 *******************************************************************************
 **                                                                           **
 **     #####                         ##              ##                      **
 **    ##   ##            ##          ##              ##                      **
 **   ##     ##                       ##            ######                    **
 **   ##     ##  ##   ##  ##   #####  ##  ##   ####   ##    #####    #####    **
 **   ##     ##  ##   ##  ##  ##      ## ##   ##      ##   ##   ##  ##   ##   **
 **   ##  ## ##  ##   ##  ##  ##      ####     ###    ##   ######   ######    **
 **    ##  ###   ##   ##  ##  ##      ## ##      ##   ##   ##       ##        **
 **     #######   #####   ##   #####  ##  ##  ####    ##    #####   ##        **
 **           ##                                                    ##        **
 **                                                                           **
 **                                                ... make the atoms dance   **
 **                                                                           **
 **            Copyright (C) by CP2K developers group (2000 - 2018)           **
 **                                                                           **
 *******************************************************************************


 TOTAL NUMBERS AND MAXIMUM NUMBERS

  Total number of            - Atomic kinds:                                   3
                             - Atoms:                                        129
                             - Shell sets:                                   129
                             - Shells:                                       613
                             - Primitive Cartesian functions:                647
                             - Cartesian basis functions:                   1657
                             - Spherical basis functions:                   1545

  Maximum angular momentum of- Orbital basis functions:                        2
                             - Local part of the GTH pseudopotential:          2
                             - Non-local part of the GTH pseudopotential:      0


 SCF PARAMETERS         Density guess:                                    ATOMIC
                        --------------------------------------------------------
                        max_scf:                                             400
                        max_scf_history:                                       0
                        max_diis:                                              4
                        --------------------------------------------------------
                        eps_scf:                                        3.00E-07
                        eps_scf_history:                                0.00E+00
                        eps_diis:                                       1.00E-01
                        eps_eigval:                                     1.00E-05
                        --------------------------------------------------------
                        level_shift [a.u.]:                                 0.00
                        added MOs                                       100  100
                        --------------------------------------------------------
                        Mixing method:                            BROYDEN_MIXING
                                                charge density mixing in g-space
                        --------------------------------------------------------
                        Smear method:                                FERMI_DIRAC
                        Electronic temperature [K]:                        300.0
                        Electronic temperature [a.u.]:                  9.50E-04
                        Accuracy threshold:                             1.00E-10
                        --------------------------------------------------------
                        Outer loop SCF in use 
                        No variables optimised in outer loop
                        eps_scf                                         1.00E-06
                        max_scf                                              100
                        DIIS optimization
                        DIIS buffer length                                     3
                        step_size                                       5.00E-01

 Spin 1

 Number of electrons:                                                        232
 Number of occupied orbitals:                                                232
 Number of molecular orbitals:                                               332

 Spin 2

 Number of electrons:                                                        232
 Number of occupied orbitals:                                                232
 Number of molecular orbitals:                                               332

 Number of orbital functions:                                               1545
 Number of independent orbital functions:                                   1545

 Extrapolation method: initial_guess


 SCF WAVEFUNCTION OPTIMIZATION

  Step     Update method      Time    Convergence         Total energy    Change
  ------------------------------------------------------------------------------
     1 NoMix/Diag. 0.10E+00    3.5     0.45118899      -636.4164223400 -6.36E+02
     2 Broy./Diag. 0.10E+00    6.9     0.04872029      -609.9980644389  2.64E+01
     3 Broy./Diag. 0.10E+00    7.1     0.14129038      -624.0992477516 -1.41E+01
     4 Broy./Diag. 0.10E+00    7.5     7.62202059      -637.3984968248 -1.33E+01
     5 Broy./Diag. 0.10E+00    7.0     7.62197248      -616.9399262246  2.05E+01
     6 Broy./Diag. 0.10E+00    7.1     7.54136150      -641.0939965413 -2.42E+01
     7 Broy./Diag. 0.10E+00    7.8     7.54135785      -618.4434002740  2.27E+01
     8 Broy./Diag. 0.10E+00    7.8     7.68262838      -641.5231001652 -2.31E+01
     9 Broy./Diag. 0.10E+00    8.0     7.68262991      -595.0002357930  4.65E+01
    10 Broy./Diag. 0.10E+00    8.4     7.57698144      -641.6570398919 -4.67E+01
    11 Broy./Diag. 0.10E+00    8.5     7.57697905      -589.6954288502  5.20E+01
    12 Broy./Diag. 0.10E+00    8.5     7.61565602      -641.8258692954 -5.21E+01
    13 Broy./Diag. 0.10E+00    8.4     7.61565376      -574.8449699699  6.70E+01
    14 Broy./Diag. 0.10E+00    8.5     7.60292355      -641.7317634705 -6.69E+01
    15 Broy./Diag. 0.10E+00    8.3     7.60292002      -597.5020772082  4.42E+01
    16 Broy./Diag. 0.10E+00    8.2     7.59476571      -641.9466246008 -4.44E+01
    17 Broy./Diag. 0.10E+00    8.4     7.59945674      -597.6755097138  4.43E+01
    18 Broy./Diag. 0.10E+00    8.4     7.71404951      -642.1001244751 -4.44E+01
    19 Broy./Diag. 0.10E+00    8.3     7.71404837      -574.2682256438  6.78E+01
    20 Broy./Diag. 0.10E+00    8.2     0.00300662      -642.1874792362 -6.79E+01
    21 Broy./Diag. 0.10E+00    8.1     0.02379066      -642.2604650888 -7.30E-02
    22 Broy./Diag. 0.10E+00    8.3     0.00512114      -642.8497623714 -5.89E-01
    23 Broy./Diag. 0.10E+00    8.0     0.01815559      -642.9628620129 -1.13E-01
    24 Broy./Diag. 0.10E+00    8.2     0.00317912      -643.1882273320 -2.25E-01
    25 Broy./Diag. 0.10E+00    8.2     0.00259512      -643.2796837595 -9.15E-02
    26 Broy./Diag. 0.10E+00    8.0     0.00189271      -643.4573765840 -1.78E-01
    27 Broy./Diag. 0.10E+00    8.4     0.00288297      -643.5008804691 -4.35E-02
    28 Broy./Diag. 0.10E+00    8.0     0.00120328      -643.5907801924 -8.99E-02
    29 Broy./Diag. 0.10E+00    8.7     0.00392909      -643.5878148099  2.97E-03
    30 Broy./Diag. 0.10E+00    8.1     0.00063798      -643.6106106098 -2.28E-02
    31 Broy./Diag. 0.10E+00    8.6     0.00064900      -643.6211604436 -1.05E-02
    32 Broy./Diag. 0.10E+00    8.0     0.00111736      -643.6255030030 -4.34E-03
    33 Broy./Diag. 0.10E+00    8.6     0.00041894      -643.6265796715 -1.08E-03
    34 Broy./Diag. 0.10E+00    8.1     0.00056212      -643.6267881473 -2.08E-04
    35 Broy./Diag. 0.10E+00    8.6     0.00036106      -643.6371904335 -1.04E-02
    36 Broy./Diag. 0.10E+00    8.0     0.00018809      -643.6523108491 -1.51E-02
    37 Broy./Diag. 0.10E+00    8.7     0.00039781      -643.6590878376 -6.78E-03
    38 Broy./Diag. 0.10E+00    8.1     0.00011614      -643.6603743321 -1.29E-03
    39 Broy./Diag. 0.10E+00    8.6     0.00024781      -643.6644443913 -4.07E-03
    40 Broy./Diag. 0.10E+00    8.2     0.00010515      -643.6690126774 -4.57E-03
    41 Broy./Diag. 0.10E+00    8.5     0.00019232      -643.6732681858 -4.26E-03
    42 Broy./Diag. 0.10E+00    8.1     0.00003507      -643.6775077249 -4.24E-03
    43 Broy./Diag. 0.10E+00    8.1     0.00019583      -643.6774163711  9.14E-05
    44 Broy./Diag. 0.10E+00    8.0     0.00002667      -643.6775791329 -1.63E-04
    45 Broy./Diag. 0.10E+00    8.2     0.00005545      -643.6766679651  9.11E-04
    46 Broy./Diag. 0.10E+00    8.3     0.00003877      -643.6786991169 -2.03E-03
    47 Broy./Diag. 0.10E+00    8.5     0.00002893      -643.6793843567 -6.85E-04
    48 Broy./Diag. 0.10E+00    8.2     0.00005113      -643.6794340503 -4.97E-05
    49 Broy./Diag. 0.10E+00    8.6     0.00001740      -643.6796299150 -1.96E-04
    50 Broy./Diag. 0.10E+00    8.4     0.00004830      -643.6792954653  3.34E-04
    51 Broy./Diag. 0.10E+00    8.5     0.00002562      -643.6786425758  6.53E-04
    52 Broy./Diag. 0.10E+00    8.4     0.00004323      -643.6782411376  4.01E-04
    53 Broy./Diag. 0.10E+00    8.5     0.00001611      -643.6778728554  3.68E-04
    54 Broy./Diag. 0.10E+00    8.4     0.00001897      -643.6777698213  1.03E-04
    55 Broy./Diag. 0.10E+00    8.5     0.00001148      -643.6776876833  8.21E-05
    56 Broy./Diag. 0.10E+00    8.5     0.00000680      -643.6777459155 -5.82E-05
    57 Broy./Diag. 0.10E+00    8.4     0.00001026      -643.6779295156 -1.84E-04
    58 Broy./Diag. 0.10E+00    8.3     0.00000273      -643.6781727561 -2.43E-04
    59 Broy./Diag. 0.10E+00    8.4     0.00000595      -643.6782740099 -1.01E-04
    60 Broy./Diag. 0.10E+00    8.3     0.00000553      -643.6783647787 -9.08E-05
    61 Broy./Diag. 0.10E+00    8.2     0.00000208      -643.6784095993 -4.48E-05
    62 Broy./Diag. 0.10E+00    8.2     0.00000339      -643.6784776590 -6.81E-05
    63 Broy./Diag. 0.10E+00    8.3     0.00000397      -643.6785005357 -2.29E-05
    64 Broy./Diag. 0.10E+00    8.1     0.00000158      -643.6784849208  1.56E-05
    65 Broy./Diag. 0.10E+00    8.4     0.00000240      -643.6784591043  2.58E-05
    66 Broy./Diag. 0.10E+00    8.5     0.00000167      -643.6784672116 -8.11E-06
    67 Broy./Diag. 0.10E+00    8.3     0.00000133      -643.6784779266 -1.07E-05
    68 Broy./Diag. 0.10E+00    8.4     0.00000097      -643.6784911664 -1.32E-05
    69 Broy./Diag. 0.10E+00    8.4     0.00000080      -643.6785072454 -1.61E-05
    70 Broy./Diag. 0.10E+00    8.4     0.00000056      -643.6785205649 -1.33E-05
    71 Broy./Diag. 0.10E+00    8.3     0.00000063      -643.6785250462 -4.48E-06
    72 Broy./Diag. 0.10E+00    8.3     0.00000042      -643.6785199146  5.13E-06
    73 Broy./Diag. 0.10E+00    8.3     0.00000038      -643.6785167350  3.18E-06
    74 Broy./Diag. 0.10E+00    8.1     0.00000171      -643.6785161012  6.34E-07
    75 Broy./Diag. 0.10E+00    8.3     0.00000119      -643.6785185401 -2.44E-06
    76 Broy./Diag. 0.10E+00    8.2     0.00000068      -643.6785207726 -2.23E-06
    77 Broy./Diag. 0.10E+00    8.5     0.00000025      -643.6785215574 -7.85E-07

  *** SCF run converged in    77 steps ***


  Electronic density on regular grids:       -463.9999999986        0.0000000014
  Core density on regular grids:              463.9999999995       -0.0000000005
  Total charge density on r-space grids:        0.0000000009
  Total charge density g-space grids:           0.0000000009

  Overlap energy of the core charge distribution:               0.00002384473555
  Self energy of the core charge distribution:              -1516.08847113961383
  Core Hamiltonian energy:                                    477.28173107942547
  Hartree energy:                                             593.22145301688920
  Exchange-correlation energy:                               -197.84328628331318
  Dispersion energy:                                           -0.24693397129903
  Electronic entropic energy:                                  -0.00303810469383
  Fermi energy:                                                -0.11238413906550

  Total energy:                                              -643.67852155740945

  outer SCF iter =    1 RMS gradient =   0.25E-06 energy =       -643.6785215574
  outer SCF loop converged in   1 iterations or   77 steps


  Integrated absolute spin density  :                               0.0000000000
  WARNING: S**2 computation does not yet treat fractional occupied orbitals

 *** WARNING in qs_loc_utils.F:1387 :: User requested the calculation of ***
 *** the localized wavefunction but the section LOCALIZE was not         ***
 *** specified. Localization will not be performed!                      ***


 -------------------------------------------------------------------------------
 -                                                                             -
 -  BSSE CALCULATION         FRAGMENT CONF: 11        FRAGMENT SUBCONF: 01     -
 -                           CHARGE =     0           MULTIPLICITY =     0     -
 -                                                                             -
 -                 ATOM INDEX                              ATOM NAME           -
 -                 ----------                              ---------           -
 -                      1                                   C_ghost            -
 -                      2                                   C_ghost            -
 -                      3                                   C_ghost            -
 -                      4                                   C_ghost            -
 -                      5                                   C_ghost            -
 -                      6                                   C_ghost            -
 -                      7                                   C_ghost            -
 -                      8                                   C_ghost            -
 -                      9                                   C_ghost            -
 -                     10                                   C_ghost            -
 -                     11                                   C_ghost            -
 -                     12                                   C_ghost            -
 -                     13                                   C_ghost            -
 -                     14                                   C_ghost            -
 -                     15                                   C_ghost            -
 -                     16                                   C_ghost            -
 -                     17                                   C_ghost            -
 -                     18                                   C_ghost            -
 -                     19                                   C_ghost            -
 -                     20                                   C_ghost            -
 -                     21                                   C_ghost            -
 -                     22                                   C_ghost            -
 -                     23                                   C_ghost            -
 -                     24                                   C_ghost            -
 -                     25                                   C_ghost            -
 -                     26                                   C_ghost            -
 -                     27                                   C_ghost            -
 -                     28                                   C_ghost            -
 -                     29                                   C_ghost            -
 -                     30                                   C_ghost            -
 -                     31                                   C_ghost            -
 -                     32                                   C_ghost            -
 -                     33                                   C_ghost            -
 -                     34                                   C_ghost            -
 -                     35                                   C_ghost            -
 -                     36                                   C_ghost            -
 -                     37                                   C_ghost            -
 -                     38                                   C_ghost            -
 -                     39                                   C_ghost            -
 -                     40                                   C_ghost            -
 -                     41                                   C_ghost            -
 -                     42                                   C_ghost            -
 -                     43                                   C_ghost            -
 -                     44                                   C_ghost            -
 -                     45                                   C_ghost            -
 -                     46                                   C_ghost            -
 -                     47                                   C_ghost            -
 -                     48                                   C_ghost            -
 -                     49                                   C_ghost            -
 -                     50                                   C_ghost            -
 -                     51                                   C_ghost            -
 -                     52                                   C_ghost            -
 -                     53                                   C_ghost            -
 -                     54                                   C_ghost            -
 -                     55                                   C_ghost            -
 -                     56                                   C_ghost            -
 -                     57                                   C_ghost            -
 -                     58                                   C_ghost            -
 -                     59                                   C_ghost            -
 -                     60                                   C_ghost            -
 -                     61                                   C_ghost            -
 -                     62                                   C_ghost            -
 -                     63                                   C_ghost            -
 -                     64                                   C_ghost            -
 -                     65                                   C_ghost            -
[...]
   202 Broy./Diag. 0.10E+00    6.7     0.00017248      -690.8665717207 -3.22E-06
   203 Broy./Diag. 0.10E+00    6.3     0.00021181      -690.8665720197 -2.99E-07
   204 Broy./Diag. 0.10E+00    6.5     0.00001525      -690.8665717550  2.65E-07
   205 Broy./Diag. 0.10E+00    6.6     0.00015771      -690.8665717112  4.38E-08
   206 Broy./Diag. 0.10E+00    5.8     0.00018573      -690.8665846355 -1.29E-05
   207 Broy./Diag. 0.10E+00    6.9     0.00003860      -690.8665617351  2.29E-05
   208 Broy./Diag. 0.10E+00    5.9     0.00016677      -690.8665733406 -1.16E-05
   209 Broy./Diag. 0.10E+00    6.8     0.00003252      -690.8665661285  7.21E-06
   210 Broy./Diag. 0.10E+00    6.0     0.00015068      -690.8665716072 -5.48E-06
   211 Broy./Diag. 0.10E+00    6.4     0.00012198      -690.8665622358  9.37E-06
   212 Broy./Diag. 0.10E+00    6.4     0.00012847      -690.8665740883 -1.19E-05
   213 Broy./Diag. 0.10E+00    6.6     0.00028748      -690.8665732319  8.56E-07
   214 Broy./Diag. 0.10E+00    6.9     0.00001918      -690.8665666459  6.59E-06
   215 Broy./Diag. 0.10E+00    5.8     0.00002344      -690.8665613530  5.29E-06
   216 Broy./Diag. 0.10E+00    6.9     0.00004230      -690.8665626748 -1.32E-06
   217 Broy./Diag. 0.10E+00    6.0     0.00002442      -690.8665597348  2.94E-06
   218 Broy./Diag. 0.10E+00    6.6     0.00008344      -690.8665650882 -5.35E-06
   219 Broy./Diag. 0.10E+00    6.4     0.00000403      -690.8665682749 -3.19E-06
   220 Broy./Diag. 0.10E+00    6.5     0.00001321      -690.8665701622 -1.89E-06
   221 Broy./Diag. 0.10E+00    6.9     0.00001426      -690.8665626999  7.46E-06
   222 Broy./Diag. 0.10E+00    5.9     0.00005793      -690.8665665477 -3.85E-06
   223 Broy./Diag. 0.10E+00    6.7     0.00007919      -690.8665691797 -2.63E-06
   224 Broy./Diag. 0.10E+00    5.9     0.00011639      -690.8665647741  4.41E-06
   225 Broy./Diag. 0.10E+00    6.4     0.00002384      -690.8665697484 -4.97E-06
   226 Broy./Diag. 0.10E+00    6.3     0.00004633      -690.8665701325 -3.84E-07
   227 Broy./Diag. 0.10E+00    6.4     0.00011437      -690.8665698219  3.11E-07
   228 Broy./Diag. 0.10E+00    6.6     0.00014479      -690.8665718220 -2.00E-06
   229 Broy./Diag. 0.10E+00    5.9     0.00000407      -690.8665796630 -7.84E-06
   230 Broy./Diag. 0.10E+00    6.7     0.00004159      -690.8665806274 -9.64E-07
   231 Broy./Diag. 0.10E+00    5.8     0.00012515      -690.8665673417  1.33E-05
   232 Broy./Diag. 0.10E+00    6.7     0.00001496      -690.8665564525  1.09E-05
   233 Broy./Diag. 0.10E+00    6.0     0.00004019      -690.8665534482  3.00E-06
   234 Broy./Diag. 0.10E+00    6.4     0.00021649      -690.8665487081  4.74E-06
   235 Broy./Diag. 0.10E+00    5.9     0.00001209      -690.8665374742  1.12E-05
   236 Broy./Diag. 0.10E+00    6.3     0.00017436      -690.8665394136 -1.94E-06
   237 Broy./Diag. 0.10E+00    6.4     0.00010324      -690.8665286248  1.08E-05
   238 Broy./Diag. 0.10E+00    6.9     0.00025949      -690.8665320132 -3.39E-06
   239 Broy./Diag. 0.10E+00    5.8     0.00005724      -690.8665174001  1.46E-05
   240 Broy./Diag. 0.10E+00    6.9     0.00039641      -690.8665168828  5.17E-07
   241 Broy./Diag. 0.10E+00    6.0     0.00029373      -690.8664885501  2.83E-05
   242 Broy./Diag. 0.10E+00    6.4     0.00010729      -690.8664731766  1.54E-05
   243 Broy./Diag. 0.10E+00    6.1     0.00006337      -690.8664723446  8.32E-07
   244 Broy./Diag. 0.10E+00    6.6     0.00001549      -690.8664805668 -8.22E-06
   245 Broy./Diag. 0.10E+00    6.7     0.00001261      -690.8664763991  4.17E-06
   246 Broy./Diag. 0.10E+00    6.0     0.00003052      -690.8664741209  2.28E-06
   247 Broy./Diag. 0.10E+00    7.0     0.00009531      -690.8664765410 -2.42E-06
   248 Broy./Diag. 0.10E+00    5.9     0.00006547      -690.8664680595  8.48E-06
   249 Broy./Diag. 0.10E+00    6.7     0.00011085      -690.8664763036 -8.24E-06
   250 Broy./Diag. 0.10E+00    6.0     0.00001584      -690.8664469772  2.93E-05
   251 Broy./Diag. 0.10E+00    6.4     0.00007623      -690.8664471563 -1.79E-07
   252 Broy./Diag. 0.10E+00    6.3     0.00006761      -690.8664555176 -8.36E-06
   253 Broy./Diag. 0.10E+00    6.4     0.00016107      -690.8664531818  2.34E-06
   254 Broy./Diag. 0.10E+00    6.6     0.00006772      -690.8664478734  5.31E-06
   255 Broy./Diag. 0.10E+00    5.8     0.00001147      -690.8664572901 -9.42E-06
   256 Broy./Diag. 0.10E+00    6.9     0.00012745      -690.8664477941  9.50E-06
   257 Broy./Diag. 0.10E+00    5.8     0.00004058      -690.8664545748 -6.78E-06
   258 Broy./Diag. 0.10E+00    6.8     0.00008846      -690.8664490029  5.57E-06
   259 Broy./Diag. 0.10E+00    6.0     0.00009426      -690.8664447950  4.21E-06
   260 Broy./Diag. 0.10E+00    6.5     0.00005872      -690.8664363754  8.42E-06
   261 Broy./Diag. 0.10E+00    6.3     0.00003321      -690.8664376856 -1.31E-06
   262 Broy./Diag. 0.10E+00    6.3     0.00000943      -690.8664432420 -5.56E-06
   263 Broy./Diag. 0.10E+00    6.6     0.00007045      -690.8664342401  9.00E-06
   264 Broy./Diag. 0.10E+00    6.1     0.00001851      -690.8664403910 -6.15E-06
   265 Broy./Diag. 0.10E+00    6.8     0.00001160      -690.8664438250 -3.43E-06
   266 Broy./Diag. 0.10E+00    5.9     0.00010405      -690.8664400668  3.76E-06
   267 Broy./Diag. 0.10E+00    6.7     0.00008495      -690.8664369746  3.09E-06
   268 Broy./Diag. 0.10E+00    6.1     0.00022491      -690.8664463513 -9.38E-06
   269 Broy./Diag. 0.10E+00    6.4     0.00004556      -690.8664577478 -1.14E-05
   270 Broy./Diag. 0.10E+00    6.4     0.00012823      -690.8664629135 -5.17E-06
   271 Broy./Diag. 0.10E+00    6.2     0.00002887      -690.8664152187  4.77E-05
   272 Broy./Diag. 0.10E+00    6.9     0.00007585      -690.8664148056  4.13E-07
   273 Broy./Diag. 0.10E+00    5.8     0.00006041      -690.8664051702  9.64E-06
   274 Broy./Diag. 0.10E+00    6.8     0.00026829      -690.8664070932 -1.92E-06
   275 Broy./Diag. 0.10E+00    6.0     0.00024216      -690.8664251389 -1.80E-05
   276 Broy./Diag. 0.10E+00    6.5     0.00007488      -690.8663978432  2.73E-05
   277 Broy./Diag. 0.10E+00    6.3     0.00017159      -690.8664270827 -2.92E-05
   278 Broy./Diag. 0.10E+00    6.4     0.00011984      -690.8664131207  1.40E-05
   279 Broy./Diag. 0.10E+00    6.6     0.00014168      -690.8664450514 -3.19E-05
   280 Broy./Diag. 0.10E+00    6.0     0.00024205      -690.8665015749 -5.65E-05
   281 Broy./Diag. 0.10E+00    6.9     0.00018272      -690.8664917078  9.87E-06
   282 Broy./Diag. 0.10E+00    5.9     0.00037030      -690.8664826238  9.08E-06
   283 Broy./Diag. 0.10E+00    6.5     0.00014428      -690.8664747629  7.86E-06
   284 Broy./Diag. 0.10E+00    6.1     0.00010043      -690.8664818430 -7.08E-06
   285 Broy./Diag. 0.10E+00    6.5     0.00004633      -690.8664822431 -4.00E-07
   286 Broy./Diag. 0.10E+00    6.2     0.00024195      -690.8664883018 -6.06E-06
   287 Broy./Diag. 0.10E+00    6.1     0.00026220      -690.8664886746 -3.73E-07
   288 Broy./Diag. 0.10E+00    6.9     0.00007633      -690.8664849142  3.76E-06
   289 Broy./Diag. 0.10E+00    5.7     0.00003005      -690.8664943149 -9.40E-06
   290 Broy./Diag. 0.10E+00    6.8     0.00004279      -690.8664634900  3.08E-05
   291 Broy./Diag. 0.10E+00    5.9     0.00014421      -690.8664668721 -3.38E-06
   292 Broy./Diag. 0.10E+00    6.5     0.00002544      -690.8664772454 -1.04E-05
   293 Broy./Diag. 0.10E+00    6.3     0.00004330      -690.8664835737 -6.33E-06
   294 Broy./Diag. 0.10E+00    6.4     0.00007486      -690.8664813819  2.19E-06
   295 Broy./Diag. 0.10E+00    6.7     0.00003670      -690.8664762362  5.15E-06
   296 Broy./Diag. 0.10E+00    6.0     0.00000946      -690.8665056184 -2.94E-05
   297 Broy./Diag. 0.10E+00    6.9     0.00007445      -690.8664926686  1.29E-05
   298 Broy./Diag. 0.10E+00    5.9     0.00002865      -690.8665145115 -2.18E-05
   299 Broy./Diag. 0.10E+00    6.6     0.00011645      -690.8665190565 -4.54E-06
   300 Broy./Diag. 0.10E+00    6.2     0.00016668      -690.8665364961 -1.74E-05
   301 Broy./Diag. 0.10E+00    6.4     0.00017030      -690.8665584283 -2.19E-05
   302 Broy./Diag. 0.10E+00    6.7     0.00025345      -690.8665247480  3.37E-05
   303 Broy./Diag. 0.10E+00    5.9     0.00019154      -690.8665508198 -2.61E-05
   304 Broy./Diag. 0.10E+00    7.0     0.00009564      -690.8665423004  8.52E-06
   305 Broy./Diag. 0.10E+00    5.7     0.00011129      -690.8665338710  8.43E-06
   306 Broy./Diag. 0.10E+00    6.7     0.00007557      -690.8665352432 -1.37E-06
   307 Broy./Diag. 0.10E+00    6.2     0.00032572      -690.8665410907 -5.85E-06
   308 Broy./Diag. 0.10E+00    6.5     0.00022291      -690.8665679127 -2.68E-05
   309 Broy./Diag. 0.10E+00    6.7     0.00002553      -690.8665758343 -7.92E-06
   310 Broy./Diag. 0.10E+00    6.0     0.00007920      -690.8665712681  4.57E-06
   311 Broy./Diag. 0.10E+00    6.8     0.00005640      -690.8665788750 -7.61E-06
   312 Broy./Diag. 0.10E+00    5.8     0.00002177      -690.8666010677 -2.22E-05
   313 Broy./Diag. 0.10E+00    6.8     0.00001506      -690.8665897787  1.13E-05
   314 Broy./Diag. 0.10E+00    6.1     0.00004564      -690.8665803769  9.40E-06
   315 Broy./Diag. 0.10E+00    6.4     0.00004728      -690.8665820827 -1.71E-06
   316 Broy./Diag. 0.10E+00    6.5     0.00015349      -690.8665841366 -2.05E-06
   317 Broy./Diag. 0.10E+00    6.1     0.00000841      -690.8665937488 -9.61E-06
   318 Broy./Diag. 0.10E+00    7.0     0.00004983      -690.8665969702 -3.22E-06
   319 Broy./Diag. 0.10E+00    5.9     0.00000446      -690.8665866408  1.03E-05
   320 Broy./Diag. 0.10E+00    6.8     0.00005327      -690.8665855691  1.07E-06
   321 Broy./Diag. 0.10E+00    6.0     0.00001453      -690.8665877718 -2.20E-06
   322 Broy./Diag. 0.10E+00    6.5     0.00003289      -690.8665889581 -1.19E-06
   323 Broy./Diag. 0.10E+00    6.3     0.00001537      -690.8665913470 -2.39E-06
   324 Broy./Diag. 0.10E+00    6.3     0.00004592      -690.8665823375  9.01E-06
   325 Broy./Diag. 0.10E+00    6.9     0.00000984      -690.8665907661 -8.43E-06
   326 Broy./Diag. 0.10E+00    5.7     0.00002288      -690.8665830165  7.75E-06
   327 Broy./Diag. 0.10E+00    6.9     0.00017704      -690.8665828905  1.26E-07
   328 Broy./Diag. 0.10E+00    6.0     0.00003576      -690.8665892256 -6.34E-06
   329 Broy./Diag. 0.10E+00    6.5     0.00019616      -690.8665986637 -9.44E-06
   330 Broy./Diag. 0.10E+00    6.3     0.00007368      -690.8666144667 -1.58E-05
   331 Broy./Diag. 0.10E+00    6.5     0.00001046      -690.8666268409 -1.24E-05
   332 Broy./Diag. 0.10E+00    6.9     0.00001056      -690.8666313215 -4.48E-06
   333 Broy./Diag. 0.10E+00    5.8     0.00008409      -690.8666316750 -3.54E-07
   334 Broy./Diag. 0.10E+00    6.9     0.00041653      -690.8666406328 -8.96E-06
   335 Broy./Diag. 0.10E+00    6.0     0.00014451      -690.8666331689  7.46E-06
   336 Broy./Diag. 0.10E+00    6.6     0.00019295      -690.8666441374 -1.10E-05
   337 Broy./Diag. 0.10E+00    6.3     0.00004002      -690.8666286170  1.55E-05
   338 Broy./Diag. 0.10E+00    6.5     0.00000560      -690.8666343060 -5.69E-06
   339 Broy./Diag. 0.10E+00    6.7     0.00015372      -690.8666289891  5.32E-06
   340 Broy./Diag. 0.10E+00    6.0     0.00009125      -690.8666344780 -5.49E-06
   341 Broy./Diag. 0.10E+00    6.9     0.00001233      -690.8666249738  9.50E-06
   342 Broy./Diag. 0.10E+00    6.0     0.00002197      -690.8666184765  6.50E-06
   343 Broy./Diag. 0.10E+00    6.5     0.00002291      -690.8666222834 -3.81E-06
   344 Broy./Diag. 0.10E+00    6.4     0.00001365      -690.8666149442  7.34E-06
   345 Broy./Diag. 0.10E+00    6.2     0.00003274      -690.8666176048 -2.66E-06
   346 Broy./Diag. 0.10E+00    6.7     0.00002803      -690.8666133191  4.29E-06
   347 Broy./Diag. 0.10E+00    6.0     0.00003135      -690.8666207914 -7.47E-06
   348 Broy./Diag. 0.10E+00    6.8     0.00000790      -690.8666291669 -8.38E-06
   349 Broy./Diag. 0.10E+00    5.8     0.00000539      -690.8666216736  7.49E-06
   350 Broy./Diag. 0.10E+00    6.8     0.00002004      -690.8666225986 -9.25E-07
   351 Broy./Diag. 0.10E+00    6.1     0.00000502      -690.8666312417 -8.64E-06
   352 Broy./Diag. 0.10E+00    6.4     0.00009577      -690.8666273121  3.93E-06
   353 Broy./Diag. 0.10E+00    6.2     0.00002341      -690.8666296363 -2.32E-06
   354 Broy./Diag. 0.10E+00    6.4     0.00003802      -690.8666402489 -1.06E-05
   355 Broy./Diag. 0.10E+00    6.9     0.00003140      -690.8666225985  1.77E-05
   356 Broy./Diag. 0.10E+00    5.8     0.00002320      -690.8666235446 -9.46E-07
   357 Broy./Diag. 0.10E+00    6.9     0.00006352      -690.8666204059  3.14E-06
   358 Broy./Diag. 0.10E+00    5.9     0.00006857      -690.8666087663  1.16E-05
   359 Broy./Diag. 0.10E+00    6.5     0.00007770      -690.8666210140 -1.22E-05
   360 Broy./Diag. 0.10E+00    6.3     0.00003133      -690.8666289705 -7.96E-06
   361 Broy./Diag. 0.10E+00    6.4     0.00001033      -690.8666262034  2.77E-06
   362 Broy./Diag. 0.10E+00    6.9     0.00000375      -690.8666266358 -4.32E-07
   363 Broy./Diag. 0.10E+00    5.9     0.00002492      -690.8666241453  2.49E-06
   364 Broy./Diag. 0.10E+00    7.0     0.00029583      -690.8666330022 -8.86E-06
   365 Broy./Diag. 0.10E+00    6.0     0.00010929      -690.8666492872 -1.63E-05
   366 Broy./Diag. 0.10E+00    6.5     0.00032217      -690.8666466733  2.61E-06
   367 Broy./Diag. 0.10E+00    6.2     0.00002747      -690.8666542207 -7.55E-06
   368 Broy./Diag. 0.10E+00    6.3     0.00000976      -690.8666666091 -1.24E-05
   369 Broy./Diag. 0.10E+00    6.7     0.00003086      -690.8666547844  1.18E-05
   370 Broy./Diag. 0.10E+00    6.0     0.00012934      -690.8666686231 -1.38E-05
   371 Broy./Diag. 0.10E+00    6.9     0.00016900      -690.8666536488  1.50E-05
   372 Broy./Diag. 0.10E+00    5.8     0.00005378      -690.8666579713 -4.32E-06
   373 Broy./Diag. 0.10E+00    6.7     0.00008875      -690.8666584570 -4.86E-07
   374 Broy./Diag. 0.10E+00    6.2     0.00031470      -690.8666570795  1.38E-06
   375 Broy./Diag. 0.10E+00    6.5     0.00014367      -690.8666637006 -6.62E-06
   376 Broy./Diag. 0.10E+00    6.6     0.00003762      -690.8666616573  2.04E-06
   377 Broy./Diag. 0.10E+00    6.0     0.00033241      -690.8666518959  9.76E-06
   378 Broy./Diag. 0.10E+00    7.0     0.00007892      -690.8666251401  2.68E-05
   379 Broy./Diag. 0.10E+00    6.0     0.00008795      -690.8666308644 -5.72E-06
   380 Broy./Diag. 0.10E+00    6.9     0.00002906      -690.8666333623 -2.50E-06
   381 Broy./Diag. 0.10E+00    6.3     0.00006350      -690.8666327553  6.07E-07
   382 Broy./Diag. 0.10E+00    6.6     0.00001509      -690.8666335504 -7.95E-07
   383 Broy./Diag. 0.10E+00    6.6     0.00016666      -690.8666237893  9.76E-06
   384 Broy./Diag. 0.10E+00    5.9     0.00023002      -690.8666223681  1.42E-06
   385 Broy./Diag. 0.10E+00    6.9     0.00001519      -690.8666367047 -1.43E-05
   386 Broy./Diag. 0.10E+00    5.8     0.00006926      -690.8666230322  1.37E-05
   387 Broy./Diag. 0.10E+00    6.7     0.00007696      -690.8666355011 -1.25E-05
   388 Broy./Diag. 0.10E+00    6.0     0.00007194      -690.8666522853 -1.68E-05
   389 Broy./Diag. 0.10E+00    6.5     0.00011204      -690.8666429974  9.29E-06
   390 Broy./Diag. 0.10E+00    6.5     0.00011439      -690.8666469428 -3.95E-06
   391 Broy./Diag. 0.10E+00    6.4     0.00046963      -690.8666528612 -5.92E-06
   392 Broy./Diag. 0.10E+00    7.0     0.00000538      -690.8666362892  1.66E-05
   393 Broy./Diag. 0.10E+00    5.9     0.00002331      -690.8666306065  5.68E-06
   394 Broy./Diag. 0.10E+00    6.7     0.00038485      -690.8666303124  2.94E-07
   395 Broy./Diag. 0.10E+00    6.0     0.00003069      -690.8666286100  1.70E-06
   396 Broy./Diag. 0.10E+00    6.5     0.00011336      -690.8666293162 -7.06E-07
   397 Broy./Diag. 0.10E+00    6.3     0.00018330      -690.8666260053  3.31E-06
   398 Broy./Diag. 0.10E+00    6.3     0.00007958      -690.8666137038  1.23E-05
   399 Broy./Diag. 0.10E+00    6.7     0.00007918      -690.8666258035 -1.21E-05
   400 Broy./Diag. 0.10E+00    6.0     0.00006936      -690.8666294330 -3.63E-06

  Leaving inner SCF loop after reaching   400 steps.


  Electronic density on regular grids:       -473.0001233542       -0.0001233542
  Core density on regular grids:              472.9999999995       -0.0000000005
  Total charge density on r-space grids:       -0.0001233547
  Total charge density g-space grids:          -0.0001233547

  Overlap energy of the core charge distribution:               0.00002384473555
  Self energy of the core charge distribution:              -1612.69496133404004
  Core Hamiltonian energy:                                    507.27169968726650
  Hartree energy:                                             619.85683179476348
  Exchange-correlation energy:                               -205.04223989317228
  Dispersion energy:                                           -0.25538658748617
  Electronic entropic energy:                                  -0.00259695584495
  Fermi energy:                                                -0.10112752679922

  Total energy:                                              -690.86662943297881

  outer SCF iter =    3 RMS gradient =   0.69E-04 energy =       -690.8666294330
     1 Broy./Diag. 0.10E+00   11.3     0.00096131      -690.8665735272  5.59E-05
     2 Broy./Diag. 0.10E+00    5.9     0.00070328      -690.8656727955  9.01E-04
     3 Broy./Diag. 0.10E+00    6.9     0.00006537      -690.8666480548 -9.75E-04
     4 Broy./Diag. 0.10E+00    6.1     0.00005126      -690.8666538634 -5.81E-06
     5 Broy./Diag. 0.10E+00    6.5     0.00003345      -690.8666495971  4.27E-06
     6 Broy./Diag. 0.10E+00    6.3     0.00004501      -690.8666545413 -4.94E-06
     7 Broy./Diag. 0.10E+00    6.5     0.00002779      -690.8666671045 -1.26E-05
     8 Broy./Diag. 0.10E+00    6.6     0.00003773      -690.8666746532 -7.55E-06
     9 Broy./Diag. 0.10E+00    6.0     0.00002291      -690.8666699881  4.67E-06
    10 Broy./Diag. 0.10E+00    6.9     0.00003921      -690.8666749380 -4.95E-06
    11 Broy./Diag. 0.10E+00    5.8     0.00098433      -690.8666709214  4.02E-06
    12 Broy./Diag. 0.10E+00    6.1     0.00016981      -690.8666476985  2.32E-05
    13 Broy./Diag. 0.10E+00    6.4     0.00007429      -690.8666244752  2.32E-05
    14 Broy./Diag. 0.10E+00    6.3     0.00002987      -690.8666176119  6.86E-06
    15 Broy./Diag. 0.10E+00    6.3     0.00000581      -690.8666182040 -5.92E-07
    16 Broy./Diag. 0.10E+00    6.9     0.00002164      -690.8666222370 -4.03E-06
    17 Broy./Diag. 0.10E+00    6.0     0.00008341      -690.8666356513 -1.34E-05
    18 Broy./Diag. 0.10E+00    6.7     0.00002145      -690.8666160605  1.96E-05
    19 Broy./Diag. 0.10E+00    6.0     0.00004195      -690.8666300404 -1.40E-05
    20 Broy./Diag. 0.10E+00    6.5     0.00006619      -690.8666239752  6.07E-06
    21 Broy./Diag. 0.10E+00    6.5     0.00005188      -690.8666297731 -5.80E-06
    22 Broy./Diag. 0.10E+00    6.4     0.00014375      -690.8666221461  7.63E-06
    23 Broy./Diag. 0.10E+00    7.0     0.00003356      -690.8666275928 -5.45E-06
    24 Broy./Diag. 0.10E+00    5.6     0.00009894      -690.8666277115 -1.19E-07
    25 Broy./Diag. 0.10E+00    6.8     0.00021371      -690.8666359003 -8.19E-06
    26 Broy./Diag. 0.10E+00    6.1     0.00005294      -690.8666463856 -1.05E-05
    27 Broy./Diag. 0.10E+00    6.4     0.00004483      -690.8666124398  3.39E-05
    28 Broy./Diag. 0.10E+00    6.3     0.00000726      -690.8666216425 -9.20E-06
    29 Broy./Diag. 0.10E+00    6.6     0.00000552      -690.8666243008 -2.66E-06
    30 Broy./Diag. 0.10E+00    6.9     0.00020007      -690.8666265674 -2.27E-06
-------------------------------------------------------
Primary job  terminated normally, but 1 process returned
a non-zero exit code. Per user-direction, the job has been aborted.
-------------------------------------------------------
