 DBCSR| Multiplication driver                                               XSMM
 DBCSR| Multrec recursion limit                                              512
 DBCSR| Multiplication stack size                                           1000
 DBCSR| Maximum elements for images                                    UNLIMITED
 DBCSR| Multiplicative factor virtual images                                   1
 DBCSR| Multiplication size stacks                                             3
 DBCSR| Number of 3D layers                                               SINGLE
 DBCSR| Use MPI memory allocation                                              T
 DBCSR| Use RMA algorithm                                                      F
 DBCSR| Use Communication thread                                               T
 DBCSR| Communication thread load                                             87


  **** **** ******  **  PROGRAM STARTED AT               2024-07-30 11:13:18.785
 ***** ** ***  *** **   PROGRAM STARTED ON                            sebnode047
 **    ****   ******    PROGRAM STARTED BY                                luehrs
 ***** **    ** ** **   PROGRAM PROCESS ID                                270438
  **** **  *******  **  PROGRAM STARTED IN /home/luehrs/PhD/Sodium_batteries/Sod
                                           ium-graphene-edge/Zig_zag_3/Hydrogen

 CP2K| version string:                    CP2K version 7.0 (Development Version)
 CP2K| source code revision number:                                             
 CP2K| cp2kflags: libint fftw3 libxc parallel mpi3 scalapack xsmm libderiv_max_a
 CP2K|            m1=8 libint_max_am=9 max_contr=4
 CP2K| is freely available from                            https://www.cp2k.org/
 CP2K| Program compiled at                         Sun Jun 24 14:37:16 CEST 2018
 CP2K| Program compiled on                                            sebstorage
 CP2K| Program compiled for                                Linux-x86-64-gfortran
 CP2K| Data directory path    /home/brehm/Software_Batchnode/2018/Source/cp2k_18
 CP2K| Input file name                                         input.zig-zag.inp

 GLOBAL| Force Environment number                                              1
 GLOBAL| Basis set file name                                      ./BASIS_MOLOPT
 GLOBAL| Potential file name                                    ./GTH_POTENTIALS
 GLOBAL| MM Potential file name                                     MM_POTENTIAL
 GLOBAL| Coordinate file name              graphene_hydrogen_zig-zag_relaxed.xyz
 GLOBAL| Method name                                                        CP2K
 GLOBAL| Project name                                      graphene_zig_zag_BSSE
 GLOBAL| Preferred FFT library                                             FFTW3
 GLOBAL| Preferred diagonalization lib.                                       SL
 GLOBAL| Run type                                                           BSSE
 GLOBAL| All-to-all communication in single precision                          F
 GLOBAL| FFTs using library dependent lengths                                  F
 GLOBAL| Global print level                                                  LOW
 GLOBAL| Total number of message passing processes                            16
 GLOBAL| Number of threads for this process                                    1
 GLOBAL| This output is from process                                           0
 GLOBAL| CPU model name :  Intel(R) Xeon(R) CPU E5-2630 v3 @ 2.40GHz

 MEMORY| system memory details [Kb]
 MEMORY|                        rank 0           min           max       average
 MEMORY| MemTotal             65838216      65838216      65838216      65838216
 MEMORY| MemFree              34019316      34019316      34019316      34019316
 MEMORY| Buffers                165256        165256        165256        165256
 MEMORY| Cached               14854152      14854152      14854152      14854152
 MEMORY| Slab                   828464        828464        828464        828464
 MEMORY| SReclaimable           578444        578444        578444        578444
 MEMORY| MemLikelyFree        49617168      49617168      49617168      49617168


 GENERATE|  Preliminary Number of Bonds generated:                             0
 GENERATE|  Achieved consistency in connectivity generation.

 *******************************************************************************
 *******************************************************************************
 **                                                                           **
 **     #####                         ##              ##                      **
 **    ##   ##            ##          ##              ##                      **
 **   ##     ##                       ##            ######                    **
 **   ##     ##  ##   ##  ##   #####  ##  ##   ####   ##    #####    #####    **
 **   ##     ##  ##   ##  ##  ##      ## ##   ##      ##   ##   ##  ##   ##   **
 **   ##  ## ##  ##   ##  ##  ##      ####     ###    ##   ######   ######    **
 **    ##  ###   ##   ##  ##  ##      ## ##      ##   ##   ##       ##        **
 **     #######   #####   ##   #####  ##  ##  ####    ##    #####   ##        **
 **           ##                                                    ##        **
 **                                                                           **
 **                                                ... make the atoms dance   **
 **                                                                           **
 **            Copyright (C) by CP2K developers group (2000 - 2018)           **
 **                                                                           **
 *******************************************************************************


 TOTAL NUMBERS AND MAXIMUM NUMBERS

  Total number of            - Atomic kinds:                                   3
                             - Atoms:                                        129
                             - Shell sets:                                   129
                             - Shells:                                       613
                             - Primitive Cartesian functions:                647
                             - Cartesian basis functions:                   1657
                             - Spherical basis functions:                   1545

  Maximum angular momentum of- Orbital basis functions:                        2
                             - Local part of the GTH pseudopotential:          2
                             - Non-local part of the GTH pseudopotential:      1


 SCF PARAMETERS         Density guess:                                    ATOMIC
                        --------------------------------------------------------
                        max_scf:                                             400
                        max_scf_history:                                       0
                        max_diis:                                              4
                        --------------------------------------------------------
                        eps_scf:                                        3.00E-07
                        eps_scf_history:                                0.00E+00
                        eps_diis:                                       1.00E-01
                        eps_eigval:                                     1.00E-05
                        --------------------------------------------------------
                        level_shift [a.u.]:                                 0.00
                        added MOs                                       100  100
                        --------------------------------------------------------
                        Mixing method:                            BROYDEN_MIXING
                                                charge density mixing in g-space
                        --------------------------------------------------------
                        Smear method:                                FERMI_DIRAC
                        Electronic temperature [K]:                        300.0
                        Electronic temperature [a.u.]:                  9.50E-04
                        Accuracy threshold:                             1.00E-10
                        --------------------------------------------------------
                        Outer loop SCF in use 
                        No variables optimised in outer loop
                        eps_scf                                         1.00E-06
                        max_scf                                               80
                        DIIS optimization
                        DIIS buffer length                                     3
                        step_size                                       5.00E-01

 -------------------------------------------------------------------------------
 -                                                                             -
 -  BSSE CALCULATION         FRAGMENT CONF: 10        FRAGMENT SUBCONF: 10     -
 -                           CHARGE =     0           MULTIPLICITY =     0     -
 -                                                                             -
 -                 ATOM INDEX                              ATOM NAME           -
 -                 ----------                              ---------           -
 -                      1                                   C                  -
 -                      2                                   C                  -
 -                      3                                   C                  -
 -                      4                                   C                  -
 -                      5                                   C                  -
 -                      6                                   C                  -
 -                      7                                   C                  -
 -                      8                                   C                  -
 -                      9                                   C                  -
 -                     10                                   C                  -
 -                     11                                   C                  -
 -                     12                                   C                  -
 -                     13                                   C                  -
 -                     14                                   C                  -
 -                     15                                   C                  -
 -                     16                                   C                  -
 -                     17                                   C                  -
 -                     18                                   C                  -
 -                     19                                   C                  -
 -                     20                                   C                  -
 -                     21                                   C                  -
 -                     22                                   C                  -
 -                     23                                   C                  -
 -                     24                                   C                  -
 -                     25                                   C                  -
 -                     26                                   C                  -
 -                     27                                   C                  -
 -                     28                                   C                  -
 -                     29                                   C                  -
 -                     30                                   C                  -
 -                     31                                   C                  -
 -                     32                                   C                  -
 -                     33                                   C                  -
 -                     34                                   C                  -
 -                     35                                   C                  -
 -                     36                                   C                  -
 -                     37                                   C                  -
 -                     38                                   C                  -
 -                     39                                   C                  -
 -                     40                                   C                  -
 -                     41                                   C                  -
 -                     42                                   C                  -
 -                     43                                   C                  -
 -                     44                                   C                  -
 -                     45                                   C                  -
 -                     46                                   C                  -
 -                     47                                   C                  -
 -                     48                                   C                  -
 -                     49                                   C                  -
 -                     50                                   C                  -
 -                     51                                   C                  -
 -                     52                                   C                  -
 -                     53                                   C                  -
 -                     54                                   C                  -
 -                     55                                   C                  -
 -                     56                                   C                  -
 -                     57                                   C                  -
 -                     58                                   C                  -
 -                     59                                   C                  -
 -                     60                                   C                  -
 -                     61                                   C                  -
 -                     62                                   C                  -
 -                     63                                   C                  -
 -                     64                                   C                  -
 -                     65                                   C                  -
 -                     66                                   C                  -
 -                     67                                   C                  -
 -                     68                                   C                  -
 -                     69                                   C                  -
 -                     70                                   C                  -
 -                     71                                   C                  -
 -                     72                                   C                  -
 -                     73                                   C                  -
 -                     74                                   C                  -
 -                     75                                   C                  -
 -                     76                                   C                  -
 -                     77                                   C                  -
 -                     78                                   C                  -
 -                     79                                   C                  -
 -                     80                                   C                  -
 -                     81                                   C                  -
 -                     82                                   C                  -
 -                     83                                   C                  -
 -                     84                                   C                  -
 -                     85                                   C                  -
 -                     86                                   C                  -
 -                     87                                   C                  -
 -                     88                                   C                  -
 -                     89                                   C                  -
 -                     90                                   C                  -
 -                     91                                   C                  -
 -                     92                                   C                  -
 -                     93                                   C                  -
 -                     94                                   C                  -
 -                     95                                   C                  -
 -                     96                                   C                  -
 -                     97                                   C                  -
 -                     98                                   C                  -
 -                     99                                   C                  -
 -                    100                                   C                  -
 -                    101                                   C                  -
 -                    102                                   C                  -
 -                    103                                   C                  -
 -                    104                                   C                  -
 -                    105                                   C                  -
 -                    106                                   C                  -
 -                    107                                   C                  -
 -                    108                                   C                  -
 -                    109                                   C                  -
 -                    110                                   C                  -
 -                    111                                   C                  -
 -                    112                                   C                  -
 -                    113                                   H                  -
 -                    114                                   H                  -
 -                    115                                   H                  -
 -                    116                                   H                  -
 -                    117                                   H                  -
 -                    118                                   H                  -
 -                    119                                   H                  -
 -                    120                                   H                  -
 -                    121                                   H                  -
 -                    122                                   H                  -
 -                    123                                   H                  -
 -                    124                                   H                  -
 -                    125                                   H                  -
 -                    126                                   H                  -
 -                    127                                   H                  -
 -                    128                                   H                  -
 -------------------------------------------------------------------------------

 *******************************************************************************
 *******************************************************************************
 **                                                                           **
 **     #####                         ##              ##                      **
 **    ##   ##            ##          ##              ##                      **
 **   ##     ##                       ##            ######                    **
 **   ##     ##  ##   ##  ##   #####  ##  ##   ####   ##    #####    #####    **
 **   ##     ##  ##   ##  ##  ##      ## ##   ##      ##   ##   ##  ##   ##   **
 **   ##  ## ##  ##   ##  ##  ##      ####     ###    ##   ######   ######    **
 **    ##  ###   ##   ##  ##  ##      ## ##      ##   ##   ##       ##        **
 **     #######   #####   ##   #####  ##  ##  ####    ##    #####   ##        **
 **           ##                                                    ##        **
 **                                                                           **
 **                                                ... make the atoms dance   **
 **                                                                           **
 **            Copyright (C) by CP2K developers group (2000 - 2018)           **
 **                                                                           **
 *******************************************************************************


 TOTAL NUMBERS AND MAXIMUM NUMBERS

  Total number of            - Atomic kinds:                                   2
                             - Atoms:                                        128
                             - Shell sets:                                   128
                             - Shells:                                       608
                             - Primitive Cartesian functions:                640
                             - Cartesian basis functions:                   1648
                             - Spherical basis functions:                   1536

  Maximum angular momentum of- Orbital basis functions:                        2
                             - Local part of the GTH pseudopotential:          2
                             - Non-local part of the GTH pseudopotential:      0


 SCF PARAMETERS         Density guess:                                    ATOMIC
                        --------------------------------------------------------
                        max_scf:                                             400
                        max_scf_history:                                       0
                        max_diis:                                              4
                        --------------------------------------------------------
                        eps_scf:                                        3.00E-07
                        eps_scf_history:                                0.00E+00
                        eps_diis:                                       1.00E-01
                        eps_eigval:                                     1.00E-05
                        --------------------------------------------------------
                        level_shift [a.u.]:                                 0.00
                        added MOs                                       100  100
                        --------------------------------------------------------
                        Mixing method:                            BROYDEN_MIXING
                                                charge density mixing in g-space
                        --------------------------------------------------------
                        Smear method:                                FERMI_DIRAC
                        Electronic temperature [K]:                        300.0
                        Electronic temperature [a.u.]:                  9.50E-04
                        Accuracy threshold:                             1.00E-10
                        --------------------------------------------------------
                        Outer loop SCF in use 
                        No variables optimised in outer loop
                        eps_scf                                         1.00E-06
                        max_scf                                               80
                        DIIS optimization
                        DIIS buffer length                                     3
                        step_size                                       5.00E-01

 Spin 1

 Number of electrons:                                                        232
 Number of occupied orbitals:                                                232
 Number of molecular orbitals:                                               332

 Spin 2

 Number of electrons:                                                        232
 Number of occupied orbitals:                                                232
 Number of molecular orbitals:                                               332

 Number of orbital functions:                                               1536
 Number of independent orbital functions:                                   1536

 Extrapolation method: initial_guess


 SCF WAVEFUNCTION OPTIMIZATION

  Step     Update method      Time    Convergence         Total energy    Change
  ------------------------------------------------------------------------------
     1 NoMix/Diag. 0.10E+00    5.0     0.45107924      -636.4164223400 -6.36E+02
     2 Broy./Diag. 0.10E+00    5.8     0.04873670      -609.9994693105  2.64E+01
     3 Broy./Diag. 0.10E+00    5.9     0.14140473      -624.0969567424 -1.41E+01
     4 Broy./Diag. 0.10E+00    7.0     7.62119335      -637.3963755174 -1.33E+01
     5 Broy./Diag. 0.10E+00    6.1     7.62114521      -616.9475589278  2.04E+01
     6 Broy./Diag. 0.10E+00    6.2     7.54112246      -641.0907562051 -2.41E+01
     7 Broy./Diag. 0.10E+00    6.8     7.54111881      -618.4411514006  2.26E+01
     8 Broy./Diag. 0.10E+00    6.4     7.68249005      -641.5206678669 -2.31E+01
     9 Broy./Diag. 0.10E+00    6.6     7.68249160      -594.9997450484  4.65E+01
    10 Broy./Diag. 0.10E+00    6.9     7.57648082      -641.6546162228 -4.67E+01
    11 Broy./Diag. 0.10E+00    6.7     7.57647843      -589.8107681594  5.18E+01
    12 Broy./Diag. 0.10E+00    7.0     7.61522502      -641.8228570110 -5.20E+01
    13 Broy./Diag. 0.10E+00    6.7     7.61522275      -575.0342693748  6.68E+01
    14 Broy./Diag. 0.10E+00    6.7     7.60277533      -641.7278766803 -6.67E+01
    15 Broy./Diag. 0.10E+00    6.8     7.60277180      -597.6183134686  4.41E+01
    16 Broy./Diag. 0.10E+00    6.7     7.59272190      -641.9446174832 -4.43E+01
    17 Broy./Diag. 0.10E+00    6.7     7.59741502      -597.6641652091  4.43E+01
    18 Broy./Diag. 0.10E+00    6.7     7.70982981      -642.0979848782 -4.44E+01
    19 Broy./Diag. 0.10E+00    6.7     7.70982870      -574.3153535022  6.78E+01
    20 Broy./Diag. 0.10E+00    6.7     0.00300300      -642.1854054698 -6.79E+01
    21 Broy./Diag. 0.10E+00    6.7     0.02383531      -642.2589091586 -7.35E-02
    22 Broy./Diag. 0.10E+00    6.7     0.00517044      -642.8486833868 -5.90E-01
    23 Broy./Diag. 0.10E+00    6.8     0.01810698      -642.9610710793 -1.12E-01
    24 Broy./Diag. 0.10E+00    6.7     0.00311364      -643.1868036583 -2.26E-01
    25 Broy./Diag. 0.10E+00    6.7     0.00256520      -643.2787093193 -9.19E-02
    26 Broy./Diag. 0.10E+00    6.7     0.00184785      -643.4568077296 -1.78E-01
    27 Broy./Diag. 0.10E+00    6.7     0.00301360      -643.5003262671 -4.35E-02
    28 Broy./Diag. 0.10E+00    6.7     0.00101410      -643.5908949427 -9.06E-02
    29 Broy./Diag. 0.10E+00    6.7     0.00386646      -643.5858138903  5.08E-03
    30 Broy./Diag. 0.10E+00    6.7     0.00038652      -643.6126731862 -2.69E-02
    31 Broy./Diag. 0.10E+00    6.7     0.00091120      -643.6175158826 -4.84E-03
    32 Broy./Diag. 0.10E+00    6.7     0.00091641      -643.6262069220 -8.69E-03
    33 Broy./Diag. 0.10E+00    6.7     0.00032099      -643.6269269380 -7.20E-04
    34 Broy./Diag. 0.10E+00    6.7     0.00052710      -643.6228664865  4.06E-03
    35 Broy./Diag. 0.10E+00    6.7     0.00045376      -643.6236288610 -7.62E-04
    36 Broy./Diag. 0.10E+00    6.7     0.00042057      -643.6393153211 -1.57E-02
    37 Broy./Diag. 0.10E+00    6.7     0.00054200      -643.6514804605 -1.22E-02
    38 Broy./Diag. 0.10E+00    6.8     0.00024248      -643.6588121576 -7.33E-03
    39 Broy./Diag. 0.10E+00    6.7     0.00040558      -643.6685128805 -9.70E-03
    40 Broy./Diag. 0.10E+00    6.7     0.00030003      -643.6750757602 -6.56E-03
    41 Broy./Diag. 0.10E+00    6.7     0.00020050      -643.6764617170 -1.39E-03
    42 Broy./Diag. 0.10E+00    6.8     0.00017939      -643.6770880526 -6.26E-04
    43 Broy./Diag. 0.10E+00    6.7     0.00005868      -643.6773489950 -2.61E-04
    44 Broy./Diag. 0.10E+00    6.7     0.00021028      -643.6778157529 -4.67E-04
    45 Broy./Diag. 0.10E+00    6.7     0.00006977      -643.6800517461 -2.24E-03
    46 Broy./Diag. 0.10E+00    6.7     0.00008047      -643.6798771674  1.75E-04
    47 Broy./Diag. 0.10E+00    6.8     0.00002409      -643.6802539570 -3.77E-04
    48 Broy./Diag. 0.10E+00    6.7     0.00008675      -643.6789226064  1.33E-03
    49 Broy./Diag. 0.10E+00    6.8     0.00006222      -643.6772480393  1.67E-03
    50 Broy./Diag. 0.10E+00    6.7     0.00001635      -643.6763055043  9.43E-04
    51 Broy./Diag. 0.10E+00    6.7     0.00004015      -643.6760563973  2.49E-04
    52 Broy./Diag. 0.10E+00    6.7     0.00002047      -643.6755954561  4.61E-04
    53 Broy./Diag. 0.10E+00    6.7     0.00001759      -643.6758360394 -2.41E-04
    54 Broy./Diag. 0.10E+00    6.7     0.00003614      -643.6764042255 -5.68E-04
    55 Broy./Diag. 0.10E+00    6.7     0.00001407      -643.6766954895 -2.91E-04
    56 Broy./Diag. 0.10E+00    6.7     0.00000750      -643.6770303519 -3.35E-04
    57 Broy./Diag. 0.10E+00    6.7     0.00000867      -643.6771250133 -9.47E-05
    58 Broy./Diag. 0.10E+00    6.8     0.00001381      -643.6771339751 -8.96E-06
    59 Broy./Diag. 0.10E+00    6.7     0.00000655      -643.6773707667 -2.37E-04
    60 Broy./Diag. 0.10E+00    6.7     0.00000650      -643.6774531088 -8.23E-05
    61 Broy./Diag. 0.10E+00    6.8     0.00000487      -643.6776224447 -1.69E-04
    62 Broy./Diag. 0.10E+00    6.7     0.00000311      -643.6778087931 -1.86E-04
    63 Broy./Diag. 0.10E+00    6.7     0.00000610      -643.6779032616 -9.45E-05
    64 Broy./Diag. 0.10E+00    6.7     0.00000150      -643.6779472682 -4.40E-05
    65 Broy./Diag. 0.10E+00    6.7     0.00000328      -643.6779930858 -4.58E-05
    66 Broy./Diag. 0.10E+00    6.8     0.00000307      -643.6780287198 -3.56E-05
    67 Broy./Diag. 0.10E+00    6.8     0.00000260      -643.6780061961  2.25E-05
    68 Broy./Diag. 0.10E+00    6.7     0.00000088      -643.6779802422  2.60E-05
    69 Broy./Diag. 0.10E+00    6.8     0.00000257      -643.6779508858  2.94E-05
    70 Broy./Diag. 0.10E+00    6.7     0.00000112      -643.6779209223  3.00E-05
    71 Broy./Diag. 0.10E+00    6.8     0.00000117      -643.6778885846  3.23E-05
    72 Broy./Diag. 0.10E+00    6.7     0.00000032      -643.6778626571  2.59E-05
    73 Broy./Diag. 0.10E+00    6.8     0.00000037      -643.6778499828  1.27E-05
    74 Broy./Diag. 0.10E+00    6.8     0.00000020      -643.6778363930  1.36E-05

  *** SCF run converged in    74 steps ***


  Electronic density on regular grids:       -463.9999999988        0.0000000012
  Core density on regular grids:              463.9999999995       -0.0000000005
  Total charge density on r-space grids:        0.0000000006
  Total charge density g-space grids:           0.0000000006

  Overlap energy of the core charge distribution:               0.00002384473555
  Self energy of the core charge distribution:              -1516.08847113961383
  Core Hamiltonian energy:                                    477.28666059971306
  Hartree energy:                                             593.21823427020263
  Exchange-correlation energy:                               -197.84431258074821
  Dispersion energy:                                           -0.24693397129903
  Electronic entropic energy:                                  -0.00303741899671
  Fermi energy:                                                -0.11234998453586

  Total energy:                                              -643.67783639304025

  outer SCF iter =    1 RMS gradient =   0.20E-06 energy =       -643.6778363930
  outer SCF loop converged in   1 iterations or   74 steps


  Integrated absolute spin density  :                               0.0000000000
  WARNING: S**2 computation does not yet treat fractional occupied orbitals

 *** WARNING in qs_loc_utils.F:1387 :: User requested the calculation of ***
 *** the localized wavefunction but the section LOCALIZE was not         ***
 *** specified. Localization will not be performed!                      ***


 -------------------------------------------------------------------------------
 -                                                                             -
 -  BSSE CALCULATION         FRAGMENT CONF: 01        FRAGMENT SUBCONF: 01     -
 -                           CHARGE =     0           MULTIPLICITY =     0     -
 -                                                                             -
 -                 ATOM INDEX                              ATOM NAME           -
 -                 ----------                              ---------           -
 -                    129                                   Na                 -
 -------------------------------------------------------------------------------

 *******************************************************************************
 *******************************************************************************
 **                                                                           **
 **     #####                         ##              ##                      **
 **    ##   ##            ##          ##              ##                      **
 **   ##     ##                       ##            ######                    **
 **   ##     ##  ##   ##  ##   #####  ##  ##   ####   ##    #####    #####    **
 **   ##     ##  ##   ##  ##  ##      ## ##   ##      ##   ##   ##  ##   ##   **
 **   ##  ## ##  ##   ##  ##  ##      ####     ###    ##   ######   ######    **
 **    ##  ###   ##   ##  ##  ##      ## ##      ##   ##   ##       ##        **
 **     #######   #####   ##   #####  ##  ##  ####    ##    #####   ##        **
 **           ##                                                    ##        **
 **                                                                           **
 **                                                ... make the atoms dance   **
 **                                                                           **
 **            Copyright (C) by CP2K developers group (2000 - 2018)           **
 **                                                                           **
 *******************************************************************************

 *** WARNING in qs_environment.F:1128 :: More added MOs requested for beta ***
 *** spin than available.                                                  ***


 *** WARNING in qs_environment.F:1142 :: More added MOs requested than ***
 *** available. The full set of unoccupied MOs will be used.           ***



 TOTAL NUMBERS AND MAXIMUM NUMBERS

  Total number of            - Atomic kinds:                                   1
                             - Atoms:                                          1
                             - Shell sets:                                     1
                             - Shells:                                         5
                             - Primitive Cartesian functions:                  7
                             - Cartesian basis functions:                      9
                             - Spherical basis functions:                      9

  Maximum angular momentum of- Orbital basis functions:                        1
                             - Local part of the GTH pseudopotential:          2
                             - Non-local part of the GTH pseudopotential:      1


 SCF PARAMETERS         Density guess:                                    ATOMIC
                        --------------------------------------------------------
                        max_scf:                                             400
                        max_scf_history:                                       0
                        max_diis:                                              4
                        --------------------------------------------------------
                        eps_scf:                                        3.00E-07
                        eps_scf_history:                                0.00E+00
                        eps_diis:                                       1.00E-01
                        eps_eigval:                                     1.00E-05
                        --------------------------------------------------------
                        level_shift [a.u.]:                                 0.00
                        added MOs                                         4    5
                        --------------------------------------------------------
                        Mixing method:                            BROYDEN_MIXING
                                                charge density mixing in g-space
                        --------------------------------------------------------
                        Smear method:                                FERMI_DIRAC
                        Electronic temperature [K]:                        300.0
                        Electronic temperature [a.u.]:                  9.50E-04
                        Accuracy threshold:                             1.00E-10
                        --------------------------------------------------------
                        Outer loop SCF in use 
                        No variables optimised in outer loop
                        eps_scf                                         1.00E-06
                        max_scf                                               80
                        DIIS optimization
                        DIIS buffer length                                     3
                        step_size                                       5.00E-01

 Spin 1

 Number of electrons:                                                          5
 Number of occupied orbitals:                                                  5
 Number of molecular orbitals:                                                 9

 Spin 2

 Number of electrons:                                                          4
 Number of occupied orbitals:                                                  4
 Number of molecular orbitals:                                                 9

 Number of orbital functions:                                                  9
 Number of independent orbital functions:                                      9

 Extrapolation method: initial_guess


 SCF WAVEFUNCTION OPTIMIZATION

  Step     Update method      Time    Convergence         Total energy    Change
  ------------------------------------------------------------------------------
     1 NoMix/Diag. 0.10E+00    1.6     0.36439765       -47.1683890720 -4.72E+01
     2 Broy./Diag. 0.10E+00    3.5     0.01267633       -47.1409497767  2.74E-02
     3 Broy./Diag. 0.10E+00    4.2     0.06965143       -47.1646170288 -2.37E-02
     4 Broy./Diag. 0.10E+00    3.7     0.00151966       -47.1485939843  1.60E-02
     5 Broy./Diag. 0.10E+00    3.7     0.00357015       -47.1592767449 -1.07E-02
     6 Broy./Diag. 0.10E+00    3.8     0.00108471       -47.1511275992  8.15E-03
     7 Broy./Diag. 0.10E+00    3.9     0.01248184       -47.1577800639 -6.65E-03
     8 Broy./Diag. 0.10E+00    4.2     0.00437336       -47.1697830314 -1.20E-02
     9 Broy./Diag. 0.10E+00    4.2     0.00391330       -47.1641720882  5.61E-03
    10 Broy./Diag. 0.10E+00    4.3     0.00403507       -47.1658067070 -1.63E-03
    11 Broy./Diag. 0.10E+00    4.4     0.00102721       -47.1713555398 -5.55E-03
    12 Broy./Diag. 0.10E+00    4.6     0.00178092       -47.1679084460  3.45E-03
    13 Broy./Diag. 0.10E+00    4.4     0.00024518       -47.1716378427 -3.73E-03
    14 Broy./Diag. 0.10E+00    4.3     0.00127137       -47.1694330460  2.20E-03
    15 Broy./Diag. 0.10E+00    4.4     0.00031852       -47.1704653312 -1.03E-03
    16 Broy./Diag. 0.10E+00    4.5     0.00041875       -47.1702047599  2.61E-04
    17 Broy./Diag. 0.10E+00    4.4     0.00036627       -47.1673474673  2.86E-03
    18 Broy./Diag. 0.10E+00    4.4     0.00037755       -47.1693198932 -1.97E-03
    19 Broy./Diag. 0.10E+00    4.4     0.00025380       -47.1692841727  3.57E-05
    20 Broy./Diag. 0.10E+00    4.3     0.00042857       -47.1732675229 -3.98E-03
    21 Broy./Diag. 0.10E+00    4.4     0.00012003       -47.1738758469 -6.08E-04
    22 Broy./Diag. 0.10E+00    4.3     0.00018252       -47.1696029021  4.27E-03
    23 Broy./Diag. 0.10E+00    4.3     0.00071614       -47.1538362968  1.58E-02
    24 Broy./Diag. 0.10E+00    4.3     0.00014121       -47.1473935430  6.44E-03
    25 Broy./Diag. 0.10E+00    4.3     0.00023468       -47.1588705983 -1.15E-02
    26 Broy./Diag. 0.10E+00    4.3     0.00015653       -47.1612431076 -2.37E-03
    27 Broy./Diag. 0.10E+00    4.4     0.00007393       -47.1614692575 -2.26E-04
    28 Broy./Diag. 0.10E+00    4.3     0.00005203       -47.1605625061  9.07E-04
    29 Broy./Diag. 0.10E+00    4.4     0.00010583       -47.1602040617  3.58E-04
    30 Broy./Diag. 0.10E+00    4.3     0.00007051       -47.1603801398 -1.76E-04
    31 Broy./Diag. 0.10E+00    4.4     0.00010915       -47.1602304982  1.50E-04
    32 Broy./Diag. 0.10E+00    4.4     0.00011147       -47.1601280121  1.02E-04
    33 Broy./Diag. 0.10E+00    4.4     0.00007322       -47.1600580539  7.00E-05
    34 Broy./Diag. 0.10E+00    4.4     0.00009084       -47.1594057879  6.52E-04
    35 Broy./Diag. 0.10E+00    4.4     0.00003032       -47.1593594917  4.63E-05
    36 Broy./Diag. 0.10E+00    4.3     0.00000782       -47.1593427640  1.67E-05
    37 Broy./Diag. 0.10E+00    4.3     0.00006866       -47.1592979228  4.48E-05
    38 Broy./Diag. 0.10E+00    4.3     0.00004682       -47.1593587654 -6.08E-05
    39 Broy./Diag. 0.10E+00    4.3     0.00001234       -47.1593282050  3.06E-05
    40 Broy./Diag. 0.10E+00    4.3     0.00001275       -47.1589524287  3.76E-04
    41 Broy./Diag. 0.10E+00    4.4     0.00000818       -47.1588559193  9.65E-05
    42 Broy./Diag. 0.10E+00    4.4     0.00000949       -47.1590625466 -2.07E-04
    43 Broy./Diag. 0.10E+00    4.4     0.00001545       -47.1591325377 -7.00E-05
    44 Broy./Diag. 0.10E+00    4.3     0.00000598       -47.1591123245  2.02E-05
    45 Broy./Diag. 0.10E+00    4.4     0.00001740       -47.1591223122 -9.99E-06
    46 Broy./Diag. 0.10E+00    4.4     0.00002328       -47.1591488886 -2.66E-05
    47 Broy./Diag. 0.10E+00    4.4     0.00001471       -47.1590818000  6.71E-05
    48 Broy./Diag. 0.10E+00    4.4     0.00002432       -47.1590365012  4.53E-05
    49 Broy./Diag. 0.10E+00    4.3     0.00001144       -47.1590658352 -2.93E-05
    50 Broy./Diag. 0.10E+00    4.3     0.00001529       -47.1589570975  1.09E-04
    51 Broy./Diag. 0.10E+00    4.3     0.00001390       -47.1589256140  3.15E-05
    52 Broy./Diag. 0.10E+00    4.3     0.00001223       -47.1589612416 -3.56E-05
    53 Broy./Diag. 0.10E+00    4.3     0.00000526       -47.1589655518 -4.31E-06
    54 Broy./Diag. 0.10E+00    4.3     0.00000445       -47.1589246335  4.09E-05
    55 Broy./Diag. 0.10E+00    4.4     0.00002448       -47.1589012600  2.34E-05
    56 Broy./Diag. 0.10E+00    4.3     0.00000588       -47.1590011307 -9.99E-05
    57 Broy./Diag. 0.10E+00    4.4     0.00000686       -47.1589834519  1.77E-05
    58 Broy./Diag. 0.10E+00    4.3     0.00000604       -47.1589072675  7.62E-05
    59 Broy./Diag. 0.10E+00    4.4     0.00000716       -47.1589321877 -2.49E-05
    60 Broy./Diag. 0.10E+00    4.4     0.00000734       -47.1588675893  6.46E-05
    61 Broy./Diag. 0.10E+00    4.4     0.00000408       -47.1588388154  2.88E-05
    62 Broy./Diag. 0.10E+00    4.3     0.00000635       -47.1588751542 -3.63E-05
    63 Broy./Diag. 0.10E+00    4.3     0.00000715       -47.1588793628 -4.21E-06
    64 Broy./Diag. 0.10E+00    4.3     0.00000083       -47.1588078362  7.15E-05
    65 Broy./Diag. 0.10E+00    4.3     0.00000569       -47.1588103285 -2.49E-06
    66 Broy./Diag. 0.10E+00    4.3     0.00000315       -47.1588710825 -6.08E-05
    67 Broy./Diag. 0.10E+00    4.2     0.00000665       -47.1588562829  1.48E-05
    68 Broy./Diag. 0.10E+00    4.3     0.00000137       -47.1589071168 -5.08E-05
    69 Broy./Diag. 0.10E+00    4.3     0.00000484       -47.1589278668 -2.07E-05
    70 Broy./Diag. 0.10E+00    4.3     0.00001396       -47.1589796697 -5.18E-05
    71 Broy./Diag. 0.10E+00    4.4     0.00000077       -47.1590293140 -4.96E-05
    72 Broy./Diag. 0.10E+00    4.3     0.00000300       -47.1590423776 -1.31E-05
    73 Broy./Diag. 0.10E+00    4.4     0.00000361       -47.1589960097  4.64E-05
    74 Broy./Diag. 0.10E+00    4.4     0.00000154       -47.1589923801  3.63E-06
    75 Broy./Diag. 0.10E+00    4.4     0.00000318       -47.1590026512 -1.03E-05
    76 Broy./Diag. 0.10E+00    4.3     0.00000180       -47.1589815932  2.11E-05
    77 Broy./Diag. 0.10E+00    4.3     0.00000130       -47.1589898918 -8.30E-06
    78 Broy./Diag. 0.10E+00    4.3     0.00000224       -47.1590058744 -1.60E-05
    79 Broy./Diag. 0.10E+00    4.3     0.00000386       -47.1590122608 -6.39E-06
    80 Broy./Diag. 0.10E+00    4.3     0.00000250       -47.1589893054  2.30E-05
    81 Broy./Diag. 0.10E+00    4.3     0.00000212       -47.1589888954  4.10E-07
    82 Broy./Diag. 0.10E+00    4.3     0.00000074       -47.1589947810 -5.89E-06
    83 Broy./Diag. 0.10E+00    4.3     0.00000162       -47.1589953600 -5.79E-07
    84 Broy./Diag. 0.10E+00    4.3     0.00000258       -47.1589988263 -3.47E-06
    85 Broy./Diag. 0.10E+00    4.4     0.00000064       -47.1589900616  8.76E-06
    86 Broy./Diag. 0.10E+00    4.3     0.00000119       -47.1589843909  5.67E-06
    87 Broy./Diag. 0.10E+00    4.4     0.00000186       -47.1589896621 -5.27E-06
    88 Broy./Diag. 0.10E+00    4.4     0.00000145       -47.1589934796 -3.82E-06
    89 Broy./Diag. 0.10E+00    4.4     0.00000112       -47.1589881136  5.37E-06
    90 Broy./Diag. 0.10E+00    4.3     0.00000209       -47.1589898658 -1.75E-06
    91 Broy./Diag. 0.10E+00    4.3     0.00000058       -47.1589942614 -4.40E-06
    92 Broy./Diag. 0.10E+00    4.3     0.00000177       -47.1589961353 -1.87E-06
    93 Broy./Diag. 0.10E+00    4.3     0.00000230       -47.1589882129  7.92E-06
    94 Broy./Diag. 0.10E+00    4.3     0.00000334       -47.1589957082 -7.50E-06
    95 Broy./Diag. 0.10E+00    4.3     0.00000122       -47.1589879837  7.72E-06
    96 Broy./Diag. 0.10E+00    4.3     0.00000349       -47.1589911375 -3.15E-06
    97 Broy./Diag. 0.10E+00    4.3     0.00000055       -47.1589999704 -8.83E-06
    98 Broy./Diag. 0.10E+00    4.3     0.00000299       -47.1590001608 -1.90E-07
    99 Broy./Diag. 0.10E+00    4.4     0.00000268       -47.1589864366  1.37E-05
   100 Broy./Diag. 0.10E+00    4.3     0.00000148       -47.1589737165  1.27E-05
   101 Broy./Diag. 0.10E+00    4.3     0.00000045       -47.1589679692  5.75E-06
   102 Broy./Diag. 0.10E+00    4.4     0.00000010       -47.1589670483  9.21E-07

  *** SCF run converged in   102 steps ***


  Electronic density on regular grids:         -9.0001228393       -0.0001228393
  Core density on regular grids:                9.0000000000       -0.0000000000
  Total charge density on r-space grids:       -0.0001228393
  Total charge density g-space grids:          -0.0001228393

  Overlap energy of the core charge distribution:               0.00000000000000
  Self energy of the core charge distribution:                -96.60649019442629
  Core Hamiltonian energy:                                     29.74700540222580
  Hartree energy:                                              26.74416833225387
  Exchange-correlation energy:                                 -7.04364928227661
  Dispersion energy:                                           -0.00000130538029
  Electronic entropic energy:                                  -0.00000000071358
  Fermi energy:                                                -0.08389275994079

  Total energy:                                               -47.15896704831757

  outer SCF iter =    1 RMS gradient =   0.10E-06 energy =        -47.1589670483
  outer SCF loop converged in   1 iterations or  102 steps


  Integrated absolute spin density  :                               1.0000142260
  WARNING: S**2 computation does not yet treat fractional occupied orbitals

 *** WARNING in qs_loc_utils.F:1387 :: User requested the calculation of ***
 *** the localized wavefunction but the section LOCALIZE was not         ***
 *** specified. Localization will not be performed!                      ***


 -------------------------------------------------------------------------------
 -                                                                             -
 -  BSSE CALCULATION         FRAGMENT CONF: 11        FRAGMENT SUBCONF: 10     -
 -                           CHARGE =     0           MULTIPLICITY =     0     -
 -                                                                             -
 -                 ATOM INDEX                              ATOM NAME           -
 -                 ----------                              ---------           -
 -                      1                                   C                  -
 -                      2                                   C                  -
 -                      3                                   C                  -
 -                      4                                   C                  -
 -                      5                                   C                  -
 -                      6                                   C                  -
 -                      7                                   C                  -
 -                      8                                   C                  -
 -                      9                                   C                  -
 -                     10                                   C                  -
 -                     11                                   C                  -
 -                     12                                   C                  -
 -                     13                                   C                  -
 -                     14                                   C                  -
 -                     15                                   C                  -
 -                     16                                   C                  -
 -                     17                                   C                  -
 -                     18                                   C                  -
 -                     19                                   C                  -
 -                     20                                   C                  -
 -                     21                                   C                  -
 -                     22                                   C                  -
 -                     23                                   C                  -
 -                     24                                   C                  -
 -                     25                                   C                  -
 -                     26                                   C                  -
 -                     27                                   C                  -
 -                     28                                   C                  -
 -                     29                                   C                  -
 -                     30                                   C                  -
 -                     31                                   C                  -
 -                     32                                   C                  -
 -                     33                                   C                  -
 -                     34                                   C                  -
 -                     35                                   C                  -
 -                     36                                   C                  -
 -                     37                                   C                  -
 -                     38                                   C                  -
 -                     39                                   C                  -
 -                     40                                   C                  -
 -                     41                                   C                  -
 -                     42                                   C                  -
 -                     43                                   C                  -
 -                     44                                   C                  -
 -                     45                                   C                  -
 -                     46                                   C                  -
 -                     47                                   C                  -
 -                     48                                   C                  -
 -                     49                                   C                  -
 -                     50                                   C                  -
 -                     51                                   C                  -
 -                     52                                   C                  -
 -                     53                                   C                  -
 -                     54                                   C                  -
 -                     55                                   C                  -
 -                     56                                   C                  -
 -                     57                                   C                  -
 -                     58                                   C                  -
 -                     59                                   C                  -
 -                     60                                   C                  -
 -                     61                                   C                  -
 -                     62                                   C                  -
 -                     63                                   C                  -
 -                     64                                   C                  -
 -                     65                                   C                  -
 -                     66                                   C                  -
 -                     67                                   C                  -
 -                     68                                   C                  -
 -                     69                                   C                  -
 -                     70                                   C                  -
 -                     71                                   C                  -
 -                     72                                   C                  -
 -                     73                                   C                  -
 -                     74                                   C                  -
 -                     75                                   C                  -
 -                     76                                   C                  -
 -                     77                                   C                  -
 -                     78                                   C                  -
 -                     79                                   C                  -
 -                     80                                   C                  -
 -                     81                                   C                  -
 -                     82                                   C                  -
 -                     83                                   C                  -
 -                     84                                   C                  -
 -                     85                                   C                  -
 -                     86                                   C                  -
 -                     87                                   C                  -
 -                     88                                   C                  -
 -                     89                                   C                  -
 -                     90                                   C                  -
 -                     91                                   C                  -
 -                     92                                   C                  -
 -                     93                                   C                  -
 -                     94                                   C                  -
 -                     95                                   C                  -
 -                     96                                   C                  -
 -                     97                                   C                  -
 -                     98                                   C                  -
 -                     99                                   C                  -
 -                    100                                   C                  -
 -                    101                                   C                  -
 -                    102                                   C                  -
 -                    103                                   C                  -
 -                    104                                   C                  -
 -                    105                                   C                  -
 -                    106                                   C                  -
 -                    107                                   C                  -
 -                    108                                   C                  -
 -                    109                                   C                  -
 -                    110                                   C                  -
 -                    111                                   C                  -
 -                    112                                   C                  -
 -                    113                                   H                  -
 -                    114                                   H                  -
 -                    115                                   H                  -
 -                    116                                   H                  -
 -                    117                                   H                  -
 -                    118                                   H                  -
 -                    119                                   H                  -
 -                    120                                   H                  -
 -                    121                                   H                  -
 -                    122                                   H                  -
 -                    123                                   H                  -
 -                    124                                   H                  -
 -                    125                                   H                  -
 -                    126                                   H                  -
 -                    127                                   H                  -
 -                    128                                   H                  -
 -                    129                                   Na_ghost           -
 -------------------------------------------------------------------------------

 *******************************************************************************
 *******************************************************************************
 **                                                                           **
 **     #####                         ##              ##                      **
 **    ##   ##            ##          ##              ##                      **
 **   ##     ##                       ##            ######                    **
 **   ##     ##  ##   ##  ##   #####  ##  ##   ####   ##    #####    #####    **
 **   ##     ##  ##   ##  ##  ##      ## ##   ##      ##   ##   ##  ##   ##   **
 **   ##  ## ##  ##   ##  ##  ##      ####     ###    ##   ######   ######    **
 **    ##  ###   ##   ##  ##  ##      ## ##      ##   ##   ##       ##        **
 **     #######   #####   ##   #####  ##  ##  ####    ##    #####   ##        **
 **           ##                                                    ##        **
 **                                                                           **
 **                                                ... make the atoms dance   **
 **                                                                           **
 **            Copyright (C) by CP2K developers group (2000 - 2018)           **
 **                                                                           **
 *******************************************************************************


 TOTAL NUMBERS AND MAXIMUM NUMBERS

  Total number of            - Atomic kinds:                                   3
                             - Atoms:                                        129
                             - Shell sets:                                   129
                             - Shells:                                       613
                             - Primitive Cartesian functions:                647
                             - Cartesian basis functions:                   1657
                             - Spherical basis functions:                   1545

  Maximum angular momentum of- Orbital basis functions:                        2
                             - Local part of the GTH pseudopotential:          2
                             - Non-local part of the GTH pseudopotential:      0


 SCF PARAMETERS         Density guess:                                    ATOMIC
                        --------------------------------------------------------
                        max_scf:                                             400
                        max_scf_history:                                       0
                        max_diis:                                              4
                        --------------------------------------------------------
                        eps_scf:                                        3.00E-07
                        eps_scf_history:                                0.00E+00
                        eps_diis:                                       1.00E-01
                        eps_eigval:                                     1.00E-05
                        --------------------------------------------------------
                        level_shift [a.u.]:                                 0.00
                        added MOs                                       100  100
                        --------------------------------------------------------
                        Mixing method:                            BROYDEN_MIXING
                                                charge density mixing in g-space
                        --------------------------------------------------------
                        Smear method:                                FERMI_DIRAC
                        Electronic temperature [K]:                        300.0
                        Electronic temperature [a.u.]:                  9.50E-04
                        Accuracy threshold:                             1.00E-10
                        --------------------------------------------------------
                        Outer loop SCF in use 
                        No variables optimised in outer loop
                        eps_scf                                         1.00E-06
                        max_scf                                               80
                        DIIS optimization
                        DIIS buffer length                                     3
                        step_size                                       5.00E-01

 Spin 1

 Number of electrons:                                                        232
 Number of occupied orbitals:                                                232
 Number of molecular orbitals:                                               332

 Spin 2

 Number of electrons:                                                        232
 Number of occupied orbitals:                                                232
 Number of molecular orbitals:                                               332

 Number of orbital functions:                                               1545
 Number of independent orbital functions:                                   1545

 Extrapolation method: initial_guess


 SCF WAVEFUNCTION OPTIMIZATION

  Step     Update method      Time    Convergence         Total energy    Change
  ------------------------------------------------------------------------------
     1 NoMix/Diag. 0.10E+00    3.4     0.45118899      -636.4164223400 -6.36E+02
     2 Broy./Diag. 0.10E+00    5.8     0.04872029      -609.9980644389  2.64E+01
     3 Broy./Diag. 0.10E+00    6.0     0.14129038      -624.0992477516 -1.41E+01
     4 Broy./Diag. 0.10E+00    6.1     7.62202059      -637.3984968248 -1.33E+01
     5 Broy./Diag. 0.10E+00    6.1     7.62197248      -616.9399262246  2.05E+01
     6 Broy./Diag. 0.10E+00    6.2     7.54136150      -641.0939965413 -2.42E+01
     7 Broy./Diag. 0.10E+00    6.3     7.54135785      -618.4434002740  2.27E+01
     8 Broy./Diag. 0.10E+00    6.5     7.68262838      -641.5231001652 -2.31E+01
     9 Broy./Diag. 0.10E+00    6.6     7.68262991      -595.0002357930  4.65E+01
    10 Broy./Diag. 0.10E+00    6.8     7.57698144      -641.6570398919 -4.67E+01
    11 Broy./Diag. 0.10E+00    6.7     7.57697905      -589.6954288504  5.20E+01
    12 Broy./Diag. 0.10E+00    6.8     7.61565602      -641.8258692954 -5.21E+01
    13 Broy./Diag. 0.10E+00    6.7     7.61565376      -574.8449699704  6.70E+01
    14 Broy./Diag. 0.10E+00    6.7     7.60292355      -641.7317634705 -6.69E+01
    15 Broy./Diag. 0.10E+00    6.7     7.60292002      -597.5020772082  4.42E+01
    16 Broy./Diag. 0.10E+00    6.7     7.59476571      -641.9466246008 -4.44E+01
    17 Broy./Diag. 0.10E+00    6.8     7.59945674      -597.6755097138  4.43E+01
    18 Broy./Diag. 0.10E+00    6.8     7.71404951      -642.1001244751 -4.44E+01
    19 Broy./Diag. 0.10E+00    6.8     7.71404837      -574.2682256436  6.78E+01
    20 Broy./Diag. 0.10E+00    6.8     0.00300662      -642.1874792362 -6.79E+01
    21 Broy./Diag. 0.10E+00    6.7     0.02379066      -642.2604650888 -7.30E-02
    22 Broy./Diag. 0.10E+00    6.7     0.00512114      -642.8497623714 -5.89E-01
    23 Broy./Diag. 0.10E+00    6.7     0.01815559      -642.9628620129 -1.13E-01
    24 Broy./Diag. 0.10E+00    6.7     0.00317912      -643.1882273320 -2.25E-01
    25 Broy./Diag. 0.10E+00    6.8     0.00259512      -643.2796837595 -9.15E-02
    26 Broy./Diag. 0.10E+00    6.8     0.00189271      -643.4573765840 -1.78E-01
    27 Broy./Diag. 0.10E+00    6.8     0.00288297      -643.5008804691 -4.35E-02
    28 Broy./Diag. 0.10E+00    6.8     0.00120328      -643.5907801923 -8.99E-02
    29 Broy./Diag. 0.10E+00    6.8     0.00392909      -643.5878148092  2.97E-03
    30 Broy./Diag. 0.10E+00    6.7     0.00063798      -643.6106106124 -2.28E-02
    31 Broy./Diag. 0.10E+00    6.7     0.00064900      -643.6211604386 -1.05E-02
    32 Broy./Diag. 0.10E+00    6.7     0.00111738      -643.6255029655 -4.34E-03
    33 Broy./Diag. 0.10E+00    6.8     0.00041891      -643.6265796684 -1.08E-03
    34 Broy./Diag. 0.10E+00    6.8     0.00056218      -643.6267882375 -2.09E-04
    35 Broy./Diag. 0.10E+00    6.8     0.00035597      -643.6371986295 -1.04E-02
    36 Broy./Diag. 0.10E+00    6.8     0.00017503      -643.6523257242 -1.51E-02
    37 Broy./Diag. 0.10E+00    6.8     0.00040128      -643.6591657515 -6.84E-03
    38 Broy./Diag. 0.10E+00    6.8     0.00011512      -643.6605106323 -1.34E-03
    39 Broy./Diag. 0.10E+00    6.7     0.00033009      -643.6647957142 -4.29E-03
    40 Broy./Diag. 0.10E+00    6.7     0.00007749      -643.6691502454 -4.35E-03
    41 Broy./Diag. 0.10E+00    6.7     0.00019372      -643.6732390948 -4.09E-03
    42 Broy./Diag. 0.10E+00    6.8     0.00005657      -643.6776054399 -4.37E-03
    43 Broy./Diag. 0.10E+00    6.8     0.00023547      -643.6770974447  5.08E-04
    44 Broy./Diag. 0.10E+00    6.8     0.00003826      -643.6782344069 -1.14E-03
    45 Broy./Diag. 0.10E+00    6.8     0.00010622      -643.6773439224  8.90E-04
    46 Broy./Diag. 0.10E+00    6.8     0.00002519      -643.6763158094  1.03E-03
    47 Broy./Diag. 0.10E+00    6.8     0.00006568      -643.6746595643  1.66E-03
    48 Broy./Diag. 0.10E+00    6.7     0.00003007      -643.6740253430  6.34E-04
    49 Broy./Diag. 0.10E+00    6.7     0.00005726      -643.6740536284 -2.83E-05
    50 Broy./Diag. 0.10E+00    6.7     0.00002869      -643.6742632500 -2.10E-04
    51 Broy./Diag. 0.10E+00    6.8     0.00004706      -643.6750989494 -8.36E-04
    52 Broy./Diag. 0.10E+00    6.8     0.00001424      -643.6757020090 -6.03E-04
    53 Broy./Diag. 0.10E+00    6.8     0.00001853      -643.6766109532 -9.09E-04
    54 Broy./Diag. 0.10E+00    6.8     0.00000854      -643.6774188528 -8.08E-04
    55 Broy./Diag. 0.10E+00    6.8     0.00001164      -643.6776982344 -2.79E-04
    56 Broy./Diag. 0.10E+00    6.8     0.00000654      -643.6780530344 -3.55E-04
    57 Broy./Diag. 0.10E+00    6.8     0.00000705      -643.6782361086 -1.83E-04
    58 Broy./Diag. 0.10E+00    6.7     0.00000356      -643.6783185861 -8.25E-05
    59 Broy./Diag. 0.10E+00    6.7     0.00000496      -643.6783742757 -5.57E-05
    60 Broy./Diag. 0.10E+00    6.8     0.00000224      -643.6784830942 -1.09E-04
    61 Broy./Diag. 0.10E+00    6.8     0.00000431      -643.6785278329 -4.47E-05
    62 Broy./Diag. 0.10E+00    6.8     0.00000238      -643.6785662978 -3.85E-05
    63 Broy./Diag. 0.10E+00    6.8     0.00000216      -643.6786027454 -3.64E-05
    64 Broy./Diag. 0.10E+00    6.8     0.00000374      -643.6786143391 -1.16E-05
    65 Broy./Diag. 0.10E+00    6.8     0.00000082      -643.6785782606  3.61E-05
    66 Broy./Diag. 0.10E+00    6.8     0.00000132      -643.6785354022  4.29E-05
    67 Broy./Diag. 0.10E+00    6.8     0.00000135      -643.6784967744  3.86E-05
    68 Broy./Diag. 0.10E+00    6.7     0.00000105      -643.6784915189  5.26E-06
    69 Broy./Diag. 0.10E+00    6.8     0.00000064      -643.6785040378 -1.25E-05
    70 Broy./Diag. 0.10E+00    6.8     0.00000058      -643.6785063901 -2.35E-06
    71 Broy./Diag. 0.10E+00    6.9     0.00000075      -643.6785101217 -3.73E-06
    72 Broy./Diag. 0.10E+00    6.8     0.00000052      -643.6785123174 -2.20E-06
    73 Broy./Diag. 0.10E+00    6.8     0.00000036      -643.6785154838 -3.17E-06
    74 Broy./Diag. 0.10E+00    6.8     0.00000053      -643.6785140593  1.42E-06
    75 Broy./Diag. 0.10E+00    6.8     0.00000034      -643.6785136716  3.88E-07
    76 Broy./Diag. 0.10E+00    6.7     0.00000042      -643.6785129203  7.51E-07
    77 Broy./Diag. 0.10E+00    6.7     0.00000078      -643.6785145491 -1.63E-06
    78 Broy./Diag. 0.10E+00    6.8     0.00000199      -643.6785155403 -9.91E-07
    79 Broy./Diag. 0.10E+00    6.8     0.00000082      -643.6785178463 -2.31E-06
    80 Broy./Diag. 0.10E+00    6.9     0.00000059      -643.6785207511 -2.90E-06
    81 Broy./Diag. 0.10E+00    6.8     0.00000064      -643.6785222310 -1.48E-06
    82 Broy./Diag. 0.10E+00    6.8     0.00000034      -643.6785253113 -3.08E-06
    83 Broy./Diag. 0.10E+00    6.8     0.00000121      -643.6785255474 -2.36E-07
    84 Broy./Diag. 0.10E+00    6.8     0.00000089      -643.6785281101 -2.56E-06
    85 Broy./Diag. 0.10E+00    6.7     0.00000060      -643.6785293689 -1.26E-06
    86 Broy./Diag. 0.10E+00    6.8     0.00000033      -643.6785310937 -1.72E-06
    87 Broy./Diag. 0.10E+00    6.8     0.00000024      -643.6785312280 -1.34E-07

  *** SCF run converged in    87 steps ***


  Electronic density on regular grids:       -463.9999999986        0.0000000014
  Core density on regular grids:              463.9999999995       -0.0000000005
  Total charge density on r-space grids:        0.0000000009
  Total charge density g-space grids:           0.0000000009

  Overlap energy of the core charge distribution:               0.00002384473555
  Self energy of the core charge distribution:              -1516.08847113961383
  Core Hamiltonian energy:                                    477.28172006945630
  Hartree energy:                                             593.22145735214247
  Exchange-correlation energy:                               -197.84328927653092
  Dispersion energy:                                           -0.24693397129903
  Electronic entropic energy:                                  -0.00303810625038
  Fermi energy:                                                -0.11238413802045

  Total energy:                                              -643.67853122795736

  outer SCF iter =    1 RMS gradient =   0.24E-06 energy =       -643.6785312280
  outer SCF loop converged in   1 iterations or   87 steps


  Integrated absolute spin density  :                               0.0000000000
  WARNING: S**2 computation does not yet treat fractional occupied orbitals

 *** WARNING in qs_loc_utils.F:1387 :: User requested the calculation of ***
 *** the localized wavefunction but the section LOCALIZE was not         ***
 *** specified. Localization will not be performed!                      ***


 -------------------------------------------------------------------------------
 -                                                                             -
 -  BSSE CALCULATION         FRAGMENT CONF: 11        FRAGMENT SUBCONF: 01     -
 -                           CHARGE =     0           MULTIPLICITY =     0     -
 -                                                                             -
 -                 ATOM INDEX                              ATOM NAME           -
 -                 ----------                              ---------           -
 -                      1                                   C_ghost            -
 -                      2                                   C_ghost            -
 -                      3                                   C_ghost            -
 -                      4                                   C_ghost            -
 -                      5                                   C_ghost            -
 -                      6                                   C_ghost            -
 -                      7                                   C_ghost            -
 -                      8                                   C_ghost            -
 -                      9                                   C_ghost            -
 -                     10                                   C_ghost            -
 -                     11                                   C_ghost            -
 -                     12                                   C_ghost            -
 -                     13                                   C_ghost            -
 -                     14                                   C_ghost            -
 -                     15                                   C_ghost            -
 -                     16                                   C_ghost            -
 -                     17                                   C_ghost            -
 -                     18                                   C_ghost            -
 -                     19                                   C_ghost            -
 -                     20                                   C_ghost            -
 -                     21                                   C_ghost            -
 -                     22                                   C_ghost            -
 -                     23                                   C_ghost            -
 -                     24                                   C_ghost            -
 -                     25                                   C_ghost            -
 -                     26                                   C_ghost            -
 -                     27                                   C_ghost            -
 -                     28                                   C_ghost            -
 -                     29                                   C_ghost            -
 -                     30                                   C_ghost            -
 -                     31                                   C_ghost            -
 -                     32                                   C_ghost            -
 -                     33                                   C_ghost            -
 -                     34                                   C_ghost            -
 -                     35                                   C_ghost            -
 -                     36                                   C_ghost            -
 -                     37                                   C_ghost            -
 -                     38                                   C_ghost            -
 -                     39                                   C_ghost            -
 -                     40                                   C_ghost            -
 -                     41                                   C_ghost            -
 -                     42                                   C_ghost            -
 -                     43                                   C_ghost            -
 -                     44                                   C_ghost            -
 -                     45                                   C_ghost            -
 -                     46                                   C_ghost            -
 -                     47                                   C_ghost            -
 -                     48                                   C_ghost            -
 -                     49                                   C_ghost            -
 -                     50                                   C_ghost            -
 -                     51                                   C_ghost            -
 -                     52                                   C_ghost            -
 -                     53                                   C_ghost            -
 -                     54                                   C_ghost            -
 -                     55                                   C_ghost            -
 -                     56                                   C_ghost            -
 -                     57                                   C_ghost            -
 -                     58                                   C_ghost            -
 -                     59                                   C_ghost            -
 -                     60                                   C_ghost            -
[...]


  Electronic density on regular grids:       -473.0001233542       -0.0001233542
  Core density on regular grids:              472.9999999995       -0.0000000005
  Total charge density on r-space grids:       -0.0001233547
  Total charge density g-space grids:          -0.0001233547

  Overlap energy of the core charge distribution:               0.00002384473555
  Self energy of the core charge distribution:              -1612.69496133404004
  Core Hamiltonian energy:                                    507.27171218150244
  Hartree energy:                                             619.85683639979914
  Exchange-correlation energy:                               -205.04223490714861
  Dispersion energy:                                           -0.25538658748617
  Electronic entropic energy:                                  -0.00259692676201
  Fermi energy:                                                -0.10112766807015

  Total energy:                                              -690.86660732932137

  outer SCF iter =    6 RMS gradient =   0.16E-06 energy =       -690.8666073293
  outer SCF loop converged in   6 iterations or 2108 steps


  Integrated absolute spin density  :                               0.0045429951
  WARNING: S**2 computation does not yet treat fractional occupied orbitals

 *** WARNING in qs_loc_utils.F:1387 :: User requested the calculation of ***
 *** the localized wavefunction but the section LOCALIZE was not         ***
 *** specified. Localization will not be performed!                      ***


 -------------------------------------------------------------------------------
 -                                                                             -
 -                                 BSSE RESULTS                                -
 -                                                                             -
 -                 CP-corrected Total energy:     -690.865527                  -
 -                                                                             -
 -                       1-body contribution:     -643.677836                  -
 -                       1-body contribution:      -47.158967                  -
 -                                                                             -
 -                       2-body contribution:       -0.028723                  -
 -                 BSSE-free interaction energy:       -0.028723               -
 -------------------------------------------------------------------------------

 -------------------------------------------------------------------------------
 -                                                                             -
 -                                DBCSR STATISTICS                             -
 -                                                                             -
 -------------------------------------------------------------------------------
 COUNTER                                    TOTAL       BLAS       SMM       ACC
 flops     9 x     9 x     8               124416       0.0%    100.0%      0.0%
 flops     9 x     9 x     9               437400       0.0%    100.0%      0.0%
 flops     5 x     9 x     8               483840       0.0%    100.0%      0.0%
 flops     9 x     5 x     8               483840       0.0%    100.0%      0.0%
 flops     5 x     9 x     9               544320       0.0%    100.0%      0.0%
 flops     9 x     5 x     9               544320       0.0%    100.0%      0.0%
 flops     9 x     9 x    76              2142288       0.0%    100.0%      0.0%
 flops     5 x     5 x     8              2764800       0.0%    100.0%      0.0%
 flops     9 x     9 x    32              2985984       0.0%    100.0%      0.0%
 flops     5 x     5 x     9              3110400       0.0%    100.0%      0.0%
 flops     5 x     9 x    76              8331120       0.0%    100.0%      0.0%
 flops     9 x     5 x    76              8331120       0.0%    100.0%      0.0%
 flops    13 x     9 x     8              9704448       0.0%    100.0%      0.0%
 flops     9 x    13 x     8              9884160       0.0%    100.0%      0.0%
 flops    13 x     9 x     9             10917504       0.0%    100.0%      0.0%
 flops     9 x    13 x     9             11119680       0.0%    100.0%      0.0%
 flops     5 x     9 x    32             11612160       0.0%    100.0%      0.0%
 flops     9 x     5 x    32             11612160       0.0%    100.0%      0.0%
 flops     9 x     9 x    80             27319680       0.0%    100.0%      0.0%
 flops     9 x     9 x    81             27661176       0.0%    100.0%      0.0%
 flops     9 x     9 x    64             45515520       0.0%    100.0%      0.0%
 flops    13 x     5 x     8             64396800       0.0%    100.0%      0.0%
 flops     5 x    13 x     8             64896000       0.0%    100.0%      0.0%
 flops     5 x     5 x    32             66355200       0.0%    100.0%      0.0%
 flops    13 x     5 x     9             72446400       0.0%    100.0%      0.0%
 flops     5 x    13 x     9             73008000       0.0%    100.0%      0.0%
 flops     5 x     5 x    76             88099200       0.0%    100.0%      0.0%
 flops     5 x     9 x    80            106243200       0.0%    100.0%      0.0%
 flops     9 x     5 x    80            106243200       0.0%    100.0%      0.0%
 flops     5 x     9 x    81            107571240       0.0%    100.0%      0.0%
 flops     9 x     5 x    81            107571240       0.0%    100.0%      0.0%
 flops     9 x     9 x    96            136546560       0.0%    100.0%      0.0%
 flops    13 x     9 x    76            167098464       0.0%    100.0%      0.0%
 flops     9 x    13 x    76            170192880       0.0%    100.0%      0.0%
 flops     5 x     9 x    64            177004800       0.0%    100.0%      0.0%
 flops     9 x     5 x    64            177004800       0.0%    100.0%      0.0%
 flops    13 x     9 x    32            232906752       0.0%    100.0%      0.0%
 flops     9 x    13 x    32            237219840       0.0%    100.0%      0.0%
 flops     5 x     9 x    96            531014400       0.0%    100.0%      0.0%
 flops     9 x     5 x    96            531014400       0.0%    100.0%      0.0%
 flops     5 x     5 x    80            607104000       0.0%    100.0%      0.0%
 flops     5 x     5 x    81            614692800       0.0%    100.0%      0.0%
 flops     5 x     5 x    64           1045555200       0.0%    100.0%      0.0%
 flops    13 x    13 x     8           1476513792       0.0%    100.0%      0.0%
 flops    13 x     5 x    32           1545523200       0.0%    100.0%      0.0%
 flops     5 x    13 x    32           1557504000       0.0%    100.0%      0.0%
 flops    13 x    13 x     9           1661078016       0.0%    100.0%      0.0%
 flops    13 x     5 x    76           2051977200       0.0%    100.0%      0.0%
 flops     5 x    13 x    76           2067884000       0.0%    100.0%      0.0%
 flops    13 x     9 x    80           2130935040       0.0%    100.0%      0.0%
 flops    13 x     9 x    81           2157571728       0.0%    100.0%      0.0%
 flops     9 x    13 x    80           2170396800       0.0%    100.0%      0.0%
 flops     9 x    13 x    81           2197526760       0.0%    100.0%      0.0%
 flops     5 x     5 x    96           3136665600       0.0%    100.0%      0.0%
 flops    13 x     9 x    64           3550210560       0.0%    100.0%      0.0%
 flops     9 x    13 x    64           3615955200       0.0%    100.0%      0.0%
 flops    13 x     9 x    96          10650631680       0.0%    100.0%      0.0%
 flops     9 x    13 x    96          10847865600       0.0%    100.0%      0.0%
 flops    13 x     5 x    80          14140464000       0.0%    100.0%      0.0%
 flops     5 x    13 x    80          14250080000       0.0%    100.0%      0.0%
 flops    13 x     5 x    81          14317219800       0.0%    100.0%      0.0%
 flops     5 x    13 x    81          14428206000       0.0%    100.0%      0.0%
 flops    13 x     5 x    64          24352723200       0.0%    100.0%      0.0%
 flops     5 x    13 x    64          24541504000       0.0%    100.0%      0.0%
 flops    13 x    13 x    32          35436331008       0.0%    100.0%      0.0%
 flops    13 x    13 x    76          47048496768       0.0%    100.0%      0.0%
 flops    13 x     5 x    96          73058169600       0.0%    100.0%      0.0%
 flops     5 x    13 x    96          73624512000       0.0%    100.0%      0.0%
 flops    13 x    13 x    80         324217820160       0.0%    100.0%      0.0%
 flops    13 x    13 x    81         328270542912       0.0%    100.0%      0.0%
 flops    13 x    13 x    64         558368299008       0.0%    100.0%      0.0%
 flops    13 x    13 x    96        1675104897024       0.0%    100.0%      0.0%
 flops inhomo. stacks                           0       0.0%      0.0%      0.0%
 flops total                         3.277657E+12       0.0%    100.0%      0.0%
 flops max/rank                    212.768550E+09       0.0%    100.0%      0.0%
 matmuls inhomo. stacks                         0       0.0%      0.0%      0.0%
 matmuls total                          135753476       0.0%    100.0%      0.0%
 number of processed stacks               1467084       0.0%    100.0%      0.0%
 average stack size                                     0.0      92.5       0.0
 marketing flops                     5.194470E+12
 -------------------------------------------------------------------------------
 # multiplications                           4934
 max memory usage/rank               1.730843E+09
 # max total images/rank                        1
 # max 3D layers                                1
 # MPI messages exchanged                  473664
 MPI messages size (bytes):
  total size                       114.605810E+09
  min size                           0.000000E+00
  max size                         298.752000E+03
  average size                     241.955922E+03
 MPI breakdown and total messages size (bytes):
             size <=      128               18360                        0
       128 < size <=     8192                1224                   793152
      8192 < size <=    32768                4608                121029120
     32768 < size <=   131072               13824               1366917120
    131072 < size <=  4194304              435648             113116379328
   4194304 < size <= 16777216                   0                        0
  16777216 < size                               0                        0
 -------------------------------------------------------------------------------

 MEMORY| Estimated peak process memory [MiB]                                1651

 -------------------------------------------------------------------------------
 -                                                                             -
 -                         MESSAGE PASSING PERFORMANCE                         -
 -                                                                             -
 -------------------------------------------------------------------------------

 ROUTINE             CALLS      AVE VOLUME [Bytes]
 MP_Group             4968
 MP_Bcast             2953                 485955.
 MP_Allreduce        77484                    172.
 MP_Sync               228
 MP_Alltoall        200007               10363020.
 MP_SendRecv         59208                 746496.
 MP_ISendRecv       296340                 251100.
 MP_Wait           1017309
 MP_comm_split         204
 MP_ISend           493920                 946223.
 MP_IRecv           493920                 944372.
 MP_Recv              2354                 390545.
 MP_Memory          382428
 -------------------------------------------------------------------------------


 -------------------------------------------------------------------------------
 -                                                                             -
 -                           R E F E R E N C E S                               -
 -                                                                             -
 -------------------------------------------------------------------------------
 
 CP2K version 7.0 (Development Version), the CP2K developers group (2018).
 CP2K is freely available from https://www.cp2k.org/ .

 Schuett, Ole; Messmer, Peter; Hutter, Juerg; VandeVondele, Joost. 
 Electronic Structure Calculations on Graphics Processing Units, John Wiley & Sons, Ltd, 173-190 (2016). 
 GPU-Accelerated Sparse Matrix-Matrix Multiplication for Linear Scaling Density Functional Theory.
 http://dx.doi.org/10.1002/9781118670712.ch8


 Borstnik, U; VandeVondele, J; Weber, V; Hutter, J. 
 PARALLEL COMPUTING, 40 (5-6), 47-58 (2014). 
 Sparse matrix multiplication: The distributed block-compressed sparse
 row library.
 http://dx.doi.org/10.1016/j.parco.2014.03.012


 Hutter, J; Iannuzzi, M; Schiffmann, F; VandeVondele, J. 
 WILEY INTERDISCIPLINARY REVIEWS-COMPUTATIONAL MOLECULAR SCIENCE, 4 (1), 15-25 (2014). 
 CP2K: atomistic simulations of condensed matter systems.
 http://dx.doi.org/10.1002/wcms.1159


 Grimme, S; Ehrlich, S; Goerigk, L. 
 JOURNAL OF COMPUTATIONAL CHEMISTRY, 32, 1456 (2011). 
 Effect of the damping function in dispersion corrected density functional theory.
 http://dx.doi.org/10.1002/jcc.21759


 Grimme, S; Antony, J; Ehrlich, S; Krieg, H. 
 JOURNAL OF CHEMICAL PHYSICS, 132 (15), 154104 (2010). 
 A consistent and accurate ab initio parametrization of density
 functional dispersion correction (DFT-D) for the 94 elements H-Pu.
 http://dx.doi.org/10.1063/1.3382344


 VandeVondele, J; Hutter, J. 
 JOURNAL OF CHEMICAL PHYSICS, 127 (11), 114105 (2007). 
 Gaussian basis sets for accurate calculations on molecular systems in
 gas and condensed phases.
 http://dx.doi.org/10.1063/1.2770708


 Krack, M. 
 THEORETICAL CHEMISTRY ACCOUNTS, 114 (1-3), 145-152 (2005). 
 Pseudopotentials for H to Kr optimized for gradient-corrected
 exchange-correlation functionals.
 http://dx.doi.org/10.1007/s00214-005-0655-y


 VandeVondele, J; Krack, M; Mohamed, F; Parrinello, M; Chassaing, T;
 Hutter, J. COMPUTER PHYSICS COMMUNICATIONS, 167 (2), 103-128 (2005). 
 QUICKSTEP: Fast and accurate density functional calculations using a
 mixed Gaussian and plane waves approach.
 http://dx.doi.org/10.1016/j.cpc.2004.12.014


 Frigo, M; Johnson, SG. 
 PROCEEDINGS OF THE IEEE, 93 (2), 216-231 (2005). 
 The design and implementation of FFTW3.
 http://dx.doi.org/10.1109/JPROC.2004.840301


 Hartwigsen, C; Goedecker, S; Hutter, J. 
 PHYSICAL REVIEW B, 58 (7), 3641-3662 (1998). 
 Relativistic separable dual-space Gaussian pseudopotentials from H to Rn.
 http://dx.doi.org/10.1103/PhysRevB.58.3641


 Lippert, G; Hutter, J; Parrinello, M. 
 MOLECULAR PHYSICS, 92 (3), 477-487 (1997). 
 A hybrid Gaussian and plane wave density functional scheme.
 http://dx.doi.org/10.1080/002689797170220


 Goedecker, S; Teter, M; Hutter, J. 
 PHYSICAL REVIEW B, 54 (3), 1703-1710 (1996). 
 Separable dual-space Gaussian pseudopotentials.
 http://dx.doi.org/10.1103/PhysRevB.54.1703


 BECKE, AD. PHYSICAL REVIEW A, 38 (6), 3098-3100 (1988). 
 DENSITY-FUNCTIONAL EXCHANGE-ENERGY APPROXIMATION WITH CORRECT
 ASYMPTOTIC-BEHAVIOR.
 http://dx.doi.org/10.1103/PhysRevA.38.3098


 LEE, CT; YANG, WT; PARR, RG. 
 PHYSICAL REVIEW B, 37 (2), 785-789 (1988). 
 DEVELOPMENT OF THE COLLE-SALVETTI CORRELATION-ENERGY FORMULA INTO A
 FUNCTIONAL OF THE ELECTRON-DENSITY.
 http://dx.doi.org/10.1103/PhysRevB.37.785


 -------------------------------------------------------------------------------
 -                                                                             -
 -                                T I M I N G                                  -
 -                                                                             -
 -------------------------------------------------------------------------------
 SUBROUTINE                       CALLS  ASD         SELF TIME        TOTAL TIME
                                MAXIMUM       AVERAGE  MAXIMUM  AVERAGE  MAXIMUM
 CP2K                                 1  1.0     0.09     0.17 16663.79 16663.80
 qs_energies                          5  2.0     0.01     0.01 16659.86 16659.88
 scf_env_do_scf                       5  3.0     0.02     0.03 16649.67 16650.03
 scf_env_do_scf_inner_loop         2467  4.0     0.19     0.59 16649.64 16650.02
 qs_ks_update_qs_env               2467  5.0     0.02     0.02  7025.99  7026.16
 rebuild_ks_matrix                 2467  6.0     0.01     0.01  7023.34  7023.49
 qs_ks_build_kohn_sham_matrix      2467  7.0     0.35     0.37  7023.33  7023.48
 qs_rho_update_rho                 2472  5.0     0.02     0.02  4842.62  4843.58
 calculate_rho_elec                4944  6.0  2286.59  2372.01  4842.60  4843.55
 sum_up_and_integrate              2467  8.0    23.99    24.95  4215.08  4215.21
 integrate_v_rspace                4934  9.0  2311.18  2389.97  4191.08  4192.15
 pw_transfer                      56776  9.0     4.20     4.77  3979.89  4033.63
 fft_wrap_pw1pw2                  51842 10.0     0.52     0.55  3927.05  3981.04
 fft_wrap_pw1pw2_150              22208 10.2   297.04   305.18  3570.29  3660.92
 gspace_mixing                     2457  5.0    23.23    24.02  3494.92  3494.93
 fft3d_ps                         51842 12.0  1603.97  1674.28  2821.37  2908.63
 density_rs2pw                     4944  7.0     0.29     0.32  2413.40  2483.48
 broyden_mixing                    2457  6.0  2276.49  2303.04  2473.89  2478.83
 qs_vxc_create                     2467  8.0     0.06     0.07  2175.49  2186.06
 xc_vxc_pw_create                  2467  9.0   168.11   182.96  2175.43  2186.00
 potential_pw2rs                   4934 10.0     2.53     2.84  1780.91  1782.63
 xc_rho_set_and_dset_create        2467 10.0   199.78   212.77  1488.09  1549.30
 rs_pw_transfer                   39517  9.5     0.60     0.69  1336.63  1389.32
 qs_scf_new_mos                    2467  5.0     0.06     0.07  1285.55  1286.07
 eigensolver                       4934  6.0     0.30     0.38  1213.89  1214.15
 cp_fm_syevd                       4934  7.0     0.03     0.04   992.64   992.79
 cp_fm_syevd_base                  4934  8.0   992.47   992.60   992.47   992.60
 xc_functional_eval                4934 11.0     0.05     0.06   827.88   887.97
 pw_nn_compose_r                  29604 10.5   604.98   622.17   766.62   851.00
 x_to_yz                          27127 13.3   423.61   444.38   716.55   751.91
 lyp_lsd_eval                      2467 12.0   607.36   656.29   607.36   656.29
 mp_alltoall_z22v                 51842 14.0   532.62   612.44   532.62   612.44
 rs_pw_transfer_PW2RS_150          4934 12.0   311.65   322.16   537.21   569.02
 yz_to_x                          24715 12.6   260.26   274.90   499.94   534.15
 mp_waitany                      414976 11.5   419.11   475.29   419.11   475.29
 rs_pw_transfer_RS2PW_150          4949  9.0   235.03   243.18   407.58   460.67
 pw_gather_p                      24715 11.6   382.73   434.25   382.73   434.25
 pw_scatter_p                     27127 12.3   401.55   428.48   401.55   428.48
 fft_wrap_pw1pw2_50                9878 11.5    19.74    23.92   301.37   347.75
 -------------------------------------------------------------------------------

 The number of warnings for this run is : 7
 
 -------------------------------------------------------------------------------
  **** **** ******  **  PROGRAM ENDED AT                 2024-07-30 15:51:03.910
 ***** ** ***  *** **   PROGRAM RAN ON                                sebnode047
 **    ****   ******    PROGRAM RAN BY                                    luehrs
 ***** **    ** ** **   PROGRAM PROCESS ID                                270438
  **** **  *******  **  PROGRAM STOPPED IN /home/luehrs/PhD/Sodium_batteries/Sod
                                           ium-graphene-edge/Zig_zag_3/Hydrogen
