 DBCSR| Multiplication driver                                               XSMM
 DBCSR| Multrec recursion limit                                              512
 DBCSR| Multiplication stack size                                           1000
 DBCSR| Maximum elements for images                                    UNLIMITED
 DBCSR| Multiplicative factor virtual images                                   1
 DBCSR| Multiplication size stacks                                             3
 DBCSR| Number of 3D layers                                               SINGLE
 DBCSR| Use MPI memory allocation                                              T
 DBCSR| Use RMA algorithm                                                      F
 DBCSR| Use Communication thread                                               T
 DBCSR| Communication thread load                                             87


  **** **** ******  **  PROGRAM STARTED AT               2024-07-25 11:21:19.713
 ***** ** ***  *** **   PROGRAM STARTED ON                            sebnode131
 **    ****   ******    PROGRAM STARTED BY                                luehrs
 ***** **    ** ** **   PROGRAM PROCESS ID                                340289
  **** **  *******  **  PROGRAM STARTED IN /home/luehrs/PhD/Sodium_batteries/Sod
                                           ium-graphene-edge/Zig_zag_3/Hydrogen

 CP2K| version string:                    CP2K version 7.0 (Development Version)
 CP2K| source code revision number:                                             
 CP2K| cp2kflags: libint fftw3 libxc parallel mpi3 scalapack xsmm libderiv_max_a
 CP2K|            m1=8 libint_max_am=9 max_contr=4
 CP2K| is freely available from                            https://www.cp2k.org/
 CP2K| Program compiled at                         Sun Jun 24 14:37:16 CEST 2018
 CP2K| Program compiled on                                            sebstorage
 CP2K| Program compiled for                                Linux-x86-64-gfortran
 CP2K| Data directory path    /home/brehm/Software_Batchnode/2018/Source/cp2k_18
 CP2K| Input file name                         graphene_zig_zag_BSSE-1_2.restart

 GLOBAL| Force Environment number                                              1
 GLOBAL| Basis set file name                                      ./BASIS_MOLOPT
 GLOBAL| Potential file name                                    ./GTH_POTENTIALS
 GLOBAL| MM Potential file name                                     MM_POTENTIAL
 GLOBAL| Coordinate file name              graphene_hydrogen_zig-zag_relaxed.xyz
 GLOBAL| Method name                                                        CP2K
 GLOBAL| Project name                                      graphene_zig_zag_BSSE
 GLOBAL| Preferred FFT library                                             FFTW3
 GLOBAL| Preferred diagonalization lib.                                       SL
 GLOBAL| Run type                                                           BSSE
 GLOBAL| All-to-all communication in single precision                          F
 GLOBAL| FFTs using library dependent lengths                                  F
 GLOBAL| Global print level                                                  LOW
 GLOBAL| Total number of message passing processes                            16
 GLOBAL| Number of threads for this process                                    1
 GLOBAL| This output is from process                                           0
 GLOBAL| CPU model name :  AMD EPYC 7513 32-Core Processor

 MEMORY| system memory details [Kb]
 MEMORY|                        rank 0           min           max       average
 MEMORY| MemTotal            131901556     131901556     131901556     131901556
 MEMORY| MemFree              65668104      65668104      65668104      65668104
 MEMORY| Buffers                139060        139060        139060        139060
 MEMORY| Cached                 368268        368268        368268        368268
 MEMORY| Slab                  1283392       1283392       1283392       1283392
 MEMORY| SReclaimable           450276        450276        450276        450276
 MEMORY| MemLikelyFree        66625708      66625708      66625708      66625708


 GENERATE|  Preliminary Number of Bonds generated:                             0
 GENERATE|  Achieved consistency in connectivity generation.

 *******************************************************************************
 *******************************************************************************
 **                                                                           **
 **     #####                         ##              ##                      **
 **    ##   ##            ##          ##              ##                      **
 **   ##     ##                       ##            ######                    **
 **   ##     ##  ##   ##  ##   #####  ##  ##   ####   ##    #####    #####    **
 **   ##     ##  ##   ##  ##  ##      ## ##   ##      ##   ##   ##  ##   ##   **
 **   ##  ## ##  ##   ##  ##  ##      ####     ###    ##   ######   ######    **
 **    ##  ###   ##   ##  ##  ##      ## ##      ##   ##   ##       ##        **
 **     #######   #####   ##   #####  ##  ##  ####    ##    #####   ##        **
 **           ##                                                    ##        **
 **                                                                           **
 **                                                ... make the atoms dance   **
 **                                                                           **
 **            Copyright (C) by CP2K developers group (2000 - 2018)           **
 **                                                                           **
 *******************************************************************************


 TOTAL NUMBERS AND MAXIMUM NUMBERS

  Total number of            - Atomic kinds:                                   3
                             - Atoms:                                        129
                             - Shell sets:                                   129
                             - Shells:                                       613
                             - Primitive Cartesian functions:                647
                             - Cartesian basis functions:                   1657
                             - Spherical basis functions:                   1545

  Maximum angular momentum of- Orbital basis functions:                        2
                             - Local part of the GTH pseudopotential:          2
                             - Non-local part of the GTH pseudopotential:      1


 SCF PARAMETERS         Density guess:                                    ATOMIC
                        --------------------------------------------------------
                        max_scf:                                             400
                        max_scf_history:                                       0
                        max_diis:                                              4
                        --------------------------------------------------------
                        eps_scf:                                        3.00E-07
                        eps_scf_history:                                0.00E+00
                        eps_diis:                                       1.00E-01
                        eps_eigval:                                     1.00E-05
                        --------------------------------------------------------
                        level_shift [a.u.]:                                 0.00
                        added MOs                                       100  100
                        --------------------------------------------------------
                        Mixing method:                            BROYDEN_MIXING
                                                charge density mixing in g-space
                        --------------------------------------------------------
                        Smear method:                                FERMI_DIRAC
                        Electronic temperature [K]:                        300.0
                        Electronic temperature [a.u.]:                  9.50E-04
                        Accuracy threshold:                             1.00E-10
                        --------------------------------------------------------
                        Outer loop SCF in use 
                        No variables optimised in outer loop
                        eps_scf                                         1.00E-06
                        max_scf                                              100
                        DIIS optimization
                        DIIS buffer length                                     3
                        step_size                                       5.00E-01

 -------------------------------------------------------------------------------
 -                                                                             -
 -  BSSE CALCULATION         FRAGMENT CONF: 11        FRAGMENT SUBCONF: 10     -
 -                           CHARGE =     0           MULTIPLICITY =     0     -
 -                                                                             -
 -                 ATOM INDEX                              ATOM NAME           -
 -                 ----------                              ---------           -
 -                      1                                   C                  -
 -                      2                                   C                  -
 -                      3                                   C                  -
 -                      4                                   C                  -
 -                      5                                   C                  -
 -                      6                                   C                  -
 -                      7                                   C                  -
 -                      8                                   C                  -
 -                      9                                   C                  -
 -                     10                                   C                  -
 -                     11                                   C                  -
 -                     12                                   C                  -
 -                     13                                   C                  -
 -                     14                                   C                  -
 -                     15                                   C                  -
 -                     16                                   C                  -
 -                     17                                   C                  -
 -                     18                                   C                  -
 -                     19                                   C                  -
 -                     20                                   C                  -
 -                     21                                   C                  -
 -                     22                                   C                  -
 -                     23                                   C                  -
 -                     24                                   C                  -
 -                     25                                   C                  -
 -                     26                                   C                  -
 -                     27                                   C                  -
 -                     28                                   C                  -
 -                     29                                   C                  -
 -                     30                                   C                  -
 -                     31                                   C                  -
 -                     32                                   C                  -
 -                     33                                   C                  -
 -                     34                                   C                  -
 -                     35                                   C                  -
 -                     36                                   C                  -
 -                     37                                   C                  -
 -                     38                                   C                  -
 -                     39                                   C                  -
 -                     40                                   C                  -
 -                     41                                   C                  -
 -                     42                                   C                  -
 -                     43                                   C                  -
 -                     44                                   C                  -
 -                     45                                   C                  -
 -                     46                                   C                  -
 -                     47                                   C                  -
 -                     48                                   C                  -
 -                     49                                   C                  -
 -                     50                                   C                  -
 -                     51                                   C                  -
 -                     52                                   C                  -
 -                     53                                   C                  -
 -                     54                                   C                  -
 -                     55                                   C                  -
 -                     56                                   C                  -
 -                     57                                   C                  -
 -                     58                                   C                  -
 -                     59                                   C                  -
 -                     60                                   C                  -
 -                     61                                   C                  -
 -                     62                                   C                  -
 -                     63                                   C                  -
 -                     64                                   C                  -
 -                     65                                   C                  -
 -                     66                                   C                  -
 -                     67                                   C                  -
 -                     68                                   C                  -
 -                     69                                   C                  -
 -                     70                                   C                  -
 -                     71                                   C                  -
 -                     72                                   C                  -
 -                     73                                   C                  -
 -                     74                                   C                  -
 -                     75                                   C                  -
 -                     76                                   C                  -
 -                     77                                   C                  -
 -                     78                                   C                  -
 -                     79                                   C                  -
 -                     80                                   C                  -
 -                     81                                   C                  -
 -                     82                                   C                  -
 -                     83                                   C                  -
 -                     84                                   C                  -
 -                     85                                   C                  -
 -                     86                                   C                  -
 -                     87                                   C                  -
 -                     88                                   C                  -
 -                     89                                   C                  -
 -                     90                                   C                  -
 -                     91                                   C                  -
 -                     92                                   C                  -
 -                     93                                   C                  -
 -                     94                                   C                  -
 -                     95                                   C                  -
 -                     96                                   C                  -
 -                     97                                   C                  -
 -                     98                                   C                  -
 -                     99                                   C                  -
 -                    100                                   C                  -
 -                    101                                   C                  -
 -                    102                                   C                  -
 -                    103                                   C                  -
 -                    104                                   C                  -
 -                    105                                   C                  -
 -                    106                                   C                  -
 -                    107                                   C                  -
 -                    108                                   C                  -
 -                    109                                   C                  -
 -                    110                                   C                  -
 -                    111                                   C                  -
 -                    112                                   C                  -
 -                    113                                   H                  -
 -                    114                                   H                  -
 -                    115                                   H                  -
 -                    116                                   H                  -
 -                    117                                   H                  -
 -                    118                                   H                  -
 -                    119                                   H                  -
 -                    120                                   H                  -
 -                    121                                   H                  -
 -                    122                                   H                  -
 -                    123                                   H                  -
 -                    124                                   H                  -
 -                    125                                   H                  -
 -                    126                                   H                  -
 -                    127                                   H                  -
 -                    128                                   H                  -
 -                    129                                   Na_ghost           -
 -------------------------------------------------------------------------------

 *******************************************************************************
 *******************************************************************************
 **                                                                           **
 **     #####                         ##              ##                      **
 **    ##   ##            ##          ##              ##                      **
 **   ##     ##                       ##            ######                    **
 **   ##     ##  ##   ##  ##   #####  ##  ##   ####   ##    #####    #####    **
 **   ##     ##  ##   ##  ##  ##      ## ##   ##      ##   ##   ##  ##   ##   **
 **   ##  ## ##  ##   ##  ##  ##      ####     ###    ##   ######   ######    **
 **    ##  ###   ##   ##  ##  ##      ## ##      ##   ##   ##       ##        **
 **     #######   #####   ##   #####  ##  ##  ####    ##    #####   ##        **
 **           ##                                                    ##        **
 **                                                                           **
 **                                                ... make the atoms dance   **
 **                                                                           **
 **            Copyright (C) by CP2K developers group (2000 - 2018)           **
 **                                                                           **
 *******************************************************************************


 TOTAL NUMBERS AND MAXIMUM NUMBERS

  Total number of            - Atomic kinds:                                   3
                             - Atoms:                                        129
                             - Shell sets:                                   129
                             - Shells:                                       613
                             - Primitive Cartesian functions:                647
                             - Cartesian basis functions:                   1657
                             - Spherical basis functions:                   1545

  Maximum angular momentum of- Orbital basis functions:                        2
                             - Local part of the GTH pseudopotential:          2
                             - Non-local part of the GTH pseudopotential:      0


 SCF PARAMETERS         Density guess:                                    ATOMIC
                        --------------------------------------------------------
                        max_scf:                                             400
                        max_scf_history:                                       0
                        max_diis:                                              4
                        --------------------------------------------------------
                        eps_scf:                                        3.00E-07
                        eps_scf_history:                                0.00E+00
                        eps_diis:                                       1.00E-01
                        eps_eigval:                                     1.00E-05
                        --------------------------------------------------------
                        level_shift [a.u.]:                                 0.00
                        added MOs                                       100  100
                        --------------------------------------------------------
                        Mixing method:                            BROYDEN_MIXING
                                                charge density mixing in g-space
                        --------------------------------------------------------
                        Smear method:                                FERMI_DIRAC
                        Electronic temperature [K]:                        300.0
                        Electronic temperature [a.u.]:                  9.50E-04
                        Accuracy threshold:                             1.00E-10
                        --------------------------------------------------------
                        Outer loop SCF in use 
                        No variables optimised in outer loop
                        eps_scf                                         1.00E-06
                        max_scf                                              100
                        DIIS optimization
                        DIIS buffer length                                     3
                        step_size                                       5.00E-01

 Spin 1

 Number of electrons:                                                        232
 Number of occupied orbitals:                                                232
 Number of molecular orbitals:                                               332

 Spin 2

 Number of electrons:                                                        232
 Number of occupied orbitals:                                                232
 Number of molecular orbitals:                                               332

 Number of orbital functions:                                               1545
 Number of independent orbital functions:                                   1545

 Extrapolation method: initial_guess


 SCF WAVEFUNCTION OPTIMIZATION

  Step     Update method      Time    Convergence         Total energy    Change
  ------------------------------------------------------------------------------
     1 NoMix/Diag. 0.10E+00    2.5     0.45118899      -636.4164223400 -6.36E+02
     2 Broy./Diag. 0.10E+00    4.7     0.04872029      -609.9980644389  2.64E+01
     3 Broy./Diag. 0.10E+00    4.7     0.14129038      -624.0992477516 -1.41E+01
     4 Broy./Diag. 0.10E+00    6.2     7.62202059      -637.3984968248 -1.33E+01
     5 Broy./Diag. 0.10E+00    5.8     7.62197248      -616.9399262246  2.05E+01
     6 Broy./Diag. 0.10E+00    6.2     7.54136150      -641.0939965413 -2.42E+01
     7 Broy./Diag. 0.10E+00    6.2     7.54135785      -618.4434002740  2.27E+01
     8 Broy./Diag. 0.10E+00    6.5     7.68262838      -641.5231001652 -2.31E+01
     9 Broy./Diag. 0.10E+00    6.8     7.68262991      -595.0002357930  4.65E+01
    10 Broy./Diag. 0.10E+00    7.1     7.57698144      -641.6570398919 -4.67E+01
    11 Broy./Diag. 0.10E+00    6.9     7.57697905      -589.6954288501  5.20E+01
    12 Broy./Diag. 0.10E+00    7.4     7.61565602      -641.8258692954 -5.21E+01
    13 Broy./Diag. 0.10E+00    6.9     7.61565376      -574.8449699703  6.70E+01
    14 Broy./Diag. 0.10E+00    7.5     7.60292355      -641.7317634705 -6.69E+01
    15 Broy./Diag. 0.10E+00    6.7     7.60292002      -597.5020772082  4.42E+01
    16 Broy./Diag. 0.10E+00    7.4     7.59476571      -641.9466246008 -4.44E+01
    17 Broy./Diag. 0.10E+00    6.5     7.59945674      -597.6755097140  4.43E+01
    18 Broy./Diag. 0.10E+00    7.2     7.71404951      -642.1001244751 -4.44E+01
    19 Broy./Diag. 0.10E+00    6.7     7.71404837      -574.2682256436  6.78E+01
    20 Broy./Diag. 0.10E+00    6.9     0.00300662      -642.1874792362 -6.79E+01
    21 Broy./Diag. 0.10E+00    6.3     0.02379066      -642.2604650888 -7.30E-02
    22 Broy./Diag. 0.10E+00    6.9     0.00512114      -642.8497623714 -5.89E-01
    23 Broy./Diag. 0.10E+00    6.8     0.01815559      -642.9628620129 -1.13E-01
    24 Broy./Diag. 0.10E+00    7.0     0.00317912      -643.1882273320 -2.25E-01
    25 Broy./Diag. 0.10E+00    6.8     0.00259512      -643.2796837595 -9.15E-02
    26 Broy./Diag. 0.10E+00    7.1     0.00189271      -643.4573765840 -1.78E-01
    27 Broy./Diag. 0.10E+00    7.0     0.00288297      -643.5008804691 -4.35E-02
    28 Broy./Diag. 0.10E+00    7.0     0.00120328      -643.5907801923 -8.99E-02
    29 Broy./Diag. 0.10E+00    6.9     0.00392909      -643.5878148098  2.97E-03
    30 Broy./Diag. 0.10E+00    7.0     0.00063798      -643.6106106098 -2.28E-02
    31 Broy./Diag. 0.10E+00    6.9     0.00064900      -643.6211604471 -1.05E-02
    32 Broy./Diag. 0.10E+00    6.8     0.00111735      -643.6255030242 -4.34E-03
    33 Broy./Diag. 0.10E+00    6.9     0.00041897      -643.6265796798 -1.08E-03
    34 Broy./Diag. 0.10E+00    6.8     0.00056212      -643.6267880757 -2.08E-04
    35 Broy./Diag. 0.10E+00    6.8     0.00036141      -643.6371898079 -1.04E-02
    36 Broy./Diag. 0.10E+00    6.8     0.00018959      -643.6523109339 -1.51E-02
    37 Broy./Diag. 0.10E+00    6.8     0.00039869      -643.6590886883 -6.78E-03
    38 Broy./Diag. 0.10E+00    6.8     0.00012629      -643.6603578746 -1.27E-03
    39 Broy./Diag. 0.10E+00    6.9     0.00027495      -643.6644227178 -4.06E-03
    40 Broy./Diag. 0.10E+00    6.7     0.00010392      -643.6688698887 -4.45E-03
    41 Broy./Diag. 0.10E+00    6.8     0.00021242      -643.6731264802 -4.26E-03
    42 Broy./Diag. 0.10E+00    6.8     0.00004397      -643.6773826613 -4.26E-03
    43 Broy./Diag. 0.10E+00    6.9     0.00018748      -643.6768715627  5.11E-04
    44 Broy./Diag. 0.10E+00    6.7     0.00003465      -643.6778792299 -1.01E-03
    45 Broy./Diag. 0.10E+00    6.9     0.00007878      -643.6772738228  6.05E-04
    46 Broy./Diag. 0.10E+00    6.7     0.00004623      -643.6770247906  2.49E-04
    47 Broy./Diag. 0.10E+00    7.0     0.00003497      -643.6759853189  1.04E-03
    48 Broy./Diag. 0.10E+00    6.8     0.00004047      -643.6755761968  4.09E-04
    49 Broy./Diag. 0.10E+00    6.9     0.00000901      -643.6760867635 -5.11E-04
    50 Broy./Diag. 0.10E+00    6.7     0.00004029      -643.6764318590 -3.45E-04
    51 Broy./Diag. 0.10E+00    7.1     0.00000764      -643.6772776092 -8.46E-04
    52 Broy./Diag. 0.10E+00    6.8     0.00002593      -643.6775588052 -2.81E-04
    53 Broy./Diag. 0.10E+00    7.0     0.00001935      -643.6778613946 -3.03E-04
    54 Broy./Diag. 0.10E+00    6.8     0.00001319      -643.6779666406 -1.05E-04
    55 Broy./Diag. 0.10E+00    7.0     0.00001464      -643.6780391126 -7.25E-05
    56 Broy./Diag. 0.10E+00    6.7     0.00000753      -643.6781601481 -1.21E-04
    57 Broy./Diag. 0.10E+00    7.0     0.00000466      -643.6783224865 -1.62E-04
    58 Broy./Diag. 0.10E+00    6.8     0.00000778      -643.6784814748 -1.59E-04
    59 Broy./Diag. 0.10E+00    7.0     0.00000180      -643.6785520862 -7.06E-05
    60 Broy./Diag. 0.10E+00    6.7     0.00000268      -643.6785062560  4.58E-05
    61 Broy./Diag. 0.10E+00    7.0     0.00000269      -643.6784976093  8.65E-06
    62 Broy./Diag. 0.10E+00    6.7     0.00000259      -643.6785217770 -2.42E-05
    63 Broy./Diag. 0.10E+00    7.0     0.00000336      -643.6785075688  1.42E-05
    64 Broy./Diag. 0.10E+00    6.6     0.00000091      -643.6785095872 -2.02E-06
    65 Broy./Diag. 0.10E+00    6.8     0.00000228      -643.6785223497 -1.28E-05
    66 Broy./Diag. 0.10E+00    6.8     0.00000133      -643.6785337055 -1.14E-05
    67 Broy./Diag. 0.10E+00    6.9     0.00000111      -643.6785351103 -1.40E-06
    68 Broy./Diag. 0.10E+00    6.8     0.00000066      -643.6785235224  1.16E-05
    69 Broy./Diag. 0.10E+00    6.9     0.00000075      -643.6785178306  5.69E-06
    70 Broy./Diag. 0.10E+00    6.8     0.00000077      -643.6785189135 -1.08E-06
    71 Broy./Diag. 0.10E+00    6.9     0.00000060      -643.6785297776 -1.09E-05
    72 Broy./Diag. 0.10E+00    6.8     0.00000085      -643.6785398529 -1.01E-05
    73 Broy./Diag. 0.10E+00    6.8     0.00000071      -643.6785400173 -1.64E-07
    74 Broy./Diag. 0.10E+00    6.8     0.00000071      -643.6785353839  4.63E-06
    75 Broy./Diag. 0.10E+00    6.8     0.00000024      -643.6785337212  1.66E-06

  *** SCF run converged in    75 steps ***


  Electronic density on regular grids:       -463.9999999986        0.0000000014
  Core density on regular grids:              463.9999999995       -0.0000000005
  Total charge density on r-space grids:        0.0000000009
  Total charge density g-space grids:           0.0000000009

  Overlap energy of the core charge distribution:               0.00002384473555
  Self energy of the core charge distribution:              -1516.08847113961383
  Core Hamiltonian energy:                                    477.28172024888147
  Hartree energy:                                             593.22145675022830
  Exchange-correlation energy:                               -197.84329135410209
  Dispersion energy:                                           -0.24693397129903
  Electronic entropic energy:                                  -0.00303810109284
  Fermi energy:                                                -0.11238384051280

  Total energy:                                              -643.67853372118600

  outer SCF iter =    1 RMS gradient =   0.24E-06 energy =       -643.6785337212
  outer SCF loop converged in   1 iterations or   75 steps


  Integrated absolute spin density  :                               0.0000000000
  WARNING: S**2 computation does not yet treat fractional occupied orbitals

 *** WARNING in qs_loc_utils.F:1387 :: User requested the calculation of ***
 *** the localized wavefunction but the section LOCALIZE was not         ***
 *** specified. Localization will not be performed!                      ***


 -------------------------------------------------------------------------------
 -                                                                             -
 -  BSSE CALCULATION         FRAGMENT CONF: 11        FRAGMENT SUBCONF: 01     -
 -                           CHARGE =     0           MULTIPLICITY =     0     -
 -                                                                             -
 -                 ATOM INDEX                              ATOM NAME           -
 -                 ----------                              ---------           -
 -                      1                                   C_ghost            -
 -                      2                                   C_ghost            -
 -                      3                                   C_ghost            -
 -                      4                                   C_ghost            -
 -                      5                                   C_ghost            -
 -                      6                                   C_ghost            -
 -                      7                                   C_ghost            -
 -                      8                                   C_ghost            -
 -                      9                                   C_ghost            -
 -                     10                                   C_ghost            -
 -                     11                                   C_ghost            -
 -                     12                                   C_ghost            -
 -                     13                                   C_ghost            -
 -                     14                                   C_ghost            -
 -                     15                                   C_ghost            -
 -                     16                                   C_ghost            -
 -                     17                                   C_ghost            -
 -                     18                                   C_ghost            -
 -                     19                                   C_ghost            -
 -                     20                                   C_ghost            -
 -                     21                                   C_ghost            -
 -                     22                                   C_ghost            -
 -                     23                                   C_ghost            -
 -                     24                                   C_ghost            -
 -                     25                                   C_ghost            -
 -                     26                                   C_ghost            -
 -                     27                                   C_ghost            -
 -                     28                                   C_ghost            -
 -                     29                                   C_ghost            -
 -                     30                                   C_ghost            -
 -                     31                                   C_ghost            -
 -                     32                                   C_ghost            -
 -                     33                                   C_ghost            -
 -                     34                                   C_ghost            -
 -                     35                                   C_ghost            -
 -                     36                                   C_ghost            -
 -                     37                                   C_ghost            -
 -                     38                                   C_ghost            -
 -                     39                                   C_ghost            -
 -                     40                                   C_ghost            -
 -                     41                                   C_ghost            -
 -                     42                                   C_ghost            -
 -                     43                                   C_ghost            -
 -                     44                                   C_ghost            -
 -                     45                                   C_ghost            -
 -                     46                                   C_ghost            -
 -                     47                                   C_ghost            -
 -                     48                                   C_ghost            -
 -                     49                                   C_ghost            -
 -                     50                                   C_ghost            -
 -                     51                                   C_ghost            -
 -                     52                                   C_ghost            -
 -                     53                                   C_ghost            -
 -                     54                                   C_ghost            -
 -                     55                                   C_ghost            -
 -                     56                                   C_ghost            -
 -                     57                                   C_ghost            -
 -                     58                                   C_ghost            -
 -                     59                                   C_ghost            -
 -                     60                                   C_ghost            -
 -                     61                                   C_ghost            -
 -                     62                                   C_ghost            -
 -                     63                                   C_ghost            -
 -                     64                                   C_ghost            -
 -                     65                                   C_ghost            -
 -                     66                                   C_ghost            -
 -                     67                                   C_ghost            -
 -                     68                                   C_ghost            -
 -                     69                                   C_ghost            -
 -                     70                                   C_ghost            -
 -                     71                                   C_ghost            -
 -                     72                                   C_ghost            -
 -                     73                                   C_ghost            -
 -                     74                                   C_ghost            -
 -                     75                                   C_ghost            -
 -                     76                                   C_ghost            -
 -                     77                                   C_ghost            -
 -                     78                                   C_ghost            -
 -                     79                                   C_ghost            -
 -                     80                                   C_ghost            -
 -                     81                                   C_ghost            -
 -                     82                                   C_ghost            -
 -                     83                                   C_ghost            -
 -                     84                                   C_ghost            -
 -                     85                                   C_ghost            -
 -                     86                                   C_ghost            -
 -                     87                                   C_ghost            -
 -                     88                                   C_ghost            -
 -                     89                                   C_ghost            -
 -                     90                                   C_ghost            -
 -                     91                                   C_ghost            -
 -                     92                                   C_ghost            -
 -                     93                                   C_ghost            -
 -                     94                                   C_ghost            -
 -                     95                                   C_ghost            -
 -                     96                                   C_ghost            -
 -                     97                                   C_ghost            -
 -                     98                                   C_ghost            -
 -                     99                                   C_ghost            -
 -                    100                                   C_ghost            -
 -                    101                                   C_ghost            -
 -                    102                                   C_ghost            -
 -                    103                                   C_ghost            -
 -                    104                                   C_ghost            -
 -                    105                                   C_ghost            -
 -                    106                                   C_ghost            -
 -                    107                                   C_ghost            -
 -                    108                                   C_ghost            -
 -                    109                                   C_ghost            -
 -                    110                                   C_ghost            -
 -                    111                                   C_ghost            -
 -                    112                                   C_ghost            -
 -                    113                                   H_ghost            -
 -                    114                                   H_ghost            -
 -                    115                                   H_ghost            -
 -                    116                                   H_ghost            -
 -                    117                                   H_ghost            -
 -                    118                                   H_ghost            -
 -                    119                                   H_ghost            -
 -                    120                                   H_ghost            -
 -                    121                                   H_ghost            -
 -                    122                                   H_ghost            -
 -                    123                                   H_ghost            -
 -                    124                                   H_ghost            -
 -                    125                                   H_ghost            -
 -                    126                                   H_ghost            -
 -                    127                                   H_ghost            -
 -                    128                                   H_ghost            -
 -                    129                                   Na                 -
 -------------------------------------------------------------------------------

 *******************************************************************************
 *******************************************************************************
 **                                                                           **
 **     #####                         ##              ##                      **
 **    ##   ##            ##          ##              ##                      **
 **   ##     ##                       ##            ######                    **
 **   ##     ##  ##   ##  ##   #####  ##  ##   ####   ##    #####    #####    **
 **   ##     ##  ##   ##  ##  ##      ## ##   ##      ##   ##   ##  ##   ##   **
 **   ##  ## ##  ##   ##  ##  ##      ####     ###    ##   ######   ######    **
 **    ##  ###   ##   ##  ##  ##      ## ##      ##   ##   ##       ##        **
 **     #######   #####   ##   #####  ##  ##  ####    ##    #####   ##        **
 **           ##                                                    ##        **
 **                                                                           **
 **                                                ... make the atoms dance   **
 **                                                                           **
 **            Copyright (C) by CP2K developers group (2000 - 2018)           **
 **                                                                           **
 *******************************************************************************


 TOTAL NUMBERS AND MAXIMUM NUMBERS

  Total number of            - Atomic kinds:                                   3
                             - Atoms:                                        129
                             - Shell sets:                                   129
                             - Shells:                                       613
                             - Primitive Cartesian functions:                647
                             - Cartesian basis functions:                   1657
                             - Spherical basis functions:                   1545

  Maximum angular momentum of- Orbital basis functions:                        2
                             - Local part of the GTH pseudopotential:          2
                             - Non-local part of the GTH pseudopotential:      1


 SCF PARAMETERS         Density guess:                                    ATOMIC
                        --------------------------------------------------------
                        max_scf:                                             400
                        max_scf_history:                                       0
                        max_diis:                                              4
                        --------------------------------------------------------
                        eps_scf:                                        3.00E-07
                        eps_scf_history:                                0.00E+00
                        eps_diis:                                       1.00E-01
                        eps_eigval:                                     1.00E-05
                        --------------------------------------------------------
                        level_shift [a.u.]:                                 0.00
                        added MOs                                       100  100
                        --------------------------------------------------------
                        Mixing method:                            BROYDEN_MIXING
                                                charge density mixing in g-space
                        --------------------------------------------------------
                        Smear method:                                FERMI_DIRAC
                        Electronic temperature [K]:                        300.0
                        Electronic temperature [a.u.]:                  9.50E-04
                        Accuracy threshold:                             1.00E-10
                        --------------------------------------------------------
                        Outer loop SCF in use 
                        No variables optimised in outer loop
                        eps_scf                                         1.00E-06
                        max_scf                                              100
                        DIIS optimization
                        DIIS buffer length                                     3
                        step_size                                       5.00E-01

 Spin 1

 Number of electrons:                                                          5
 Number of occupied orbitals:                                                  5
 Number of molecular orbitals:                                               105

 Spin 2

 Number of electrons:                                                          4
 Number of occupied orbitals:                                                  4
 Number of molecular orbitals:                                               104

 Number of orbital functions:                                               1545
 Number of independent orbital functions:                                   1545

 Extrapolation method: initial_guess


 SCF WAVEFUNCTION OPTIMIZATION

  Step     Update method      Time    Convergence         Total energy    Change
  ------------------------------------------------------------------------------
     1 NoMix/Diag. 0.10E+00    3.1     0.36162911       -47.1683890720 -4.72E+01
     2 Broy./Diag. 0.10E+00    6.3     0.01261022       -47.1477600246  2.06E-02
     3 Broy./Diag. 0.10E+00    5.7     0.07745756       -47.1698675581 -2.21E-02
     4 Broy./Diag. 0.10E+00    6.1     0.00102819       -47.1533014555  1.66E-02
     5 Broy./Diag. 0.10E+00    6.0     0.01060977       -47.1624586730 -9.16E-03
     6 Broy./Diag. 0.10E+00    6.2     0.00284092       -47.1604061756  2.05E-03
     7 Broy./Diag. 0.10E+00    6.8     0.00993865       -47.1589844957  1.42E-03
     8 Broy./Diag. 0.10E+00    6.6     0.00342824       -47.1732580597 -1.43E-02
     9 Broy./Diag. 0.10E+00    7.1     0.00401360       -47.1735454498 -2.87E-04
    10 Broy./Diag. 0.10E+00    7.3     0.00544693       -47.1752097332 -1.66E-03
    11 Broy./Diag. 0.10E+00    7.0     0.00228804       -47.1827521143 -7.54E-03
    12 Broy./Diag. 0.10E+00    7.2     0.00474221       -47.1774627207  5.29E-03
    13 Broy./Diag. 0.10E+00    6.8     0.00152768       -47.1752370011  2.23E-03
    14 Broy./Diag. 0.10E+00    7.5     0.00031282       -47.1771155370 -1.88E-03
    15 Broy./Diag. 0.10E+00    6.7     0.00106376       -47.1739056187  3.21E-03
    16 Broy./Diag. 0.10E+00    7.7     0.00045922       -47.1749496270 -1.04E-03
    17 Broy./Diag. 0.10E+00    6.7     0.00047709       -47.1736851682  1.26E-03
    18 Broy./Diag. 0.10E+00    7.2     0.00033283       -47.1789558865 -5.27E-03
    19 Broy./Diag. 0.10E+00    6.5     0.00034107       -47.1742034408  4.75E-03
    20 Broy./Diag. 0.10E+00    6.8     0.00008593       -47.1688746147  5.33E-03
    21 Broy./Diag. 0.10E+00    6.6     0.00034369       -47.1692054555 -3.31E-04
    22 Broy./Diag. 0.10E+00    6.4     0.00011946       -47.1658493130  3.36E-03
    23 Broy./Diag. 0.10E+00    6.3     0.00015345       -47.1638907748  1.96E-03
    24 Broy./Diag. 0.10E+00    6.7     0.00013684       -47.1637699127  1.21E-04
    25 Broy./Diag. 0.10E+00    6.6     0.00022425       -47.1606270161  3.14E-03
    26 Broy./Diag. 0.10E+00    6.6     0.00007008       -47.1603019598  3.25E-04
    27 Broy./Diag. 0.10E+00    6.5     0.00008670       -47.1607273494 -4.25E-04
    28 Broy./Diag. 0.10E+00    6.4     0.00004198       -47.1603995356  3.28E-04
    29 Broy./Diag. 0.10E+00    6.8     0.00004317       -47.1602235306  1.76E-04
    30 Broy./Diag. 0.10E+00    6.5     0.00004942       -47.1597508754  4.73E-04
    31 Broy./Diag. 0.10E+00    6.1     0.00003299       -47.1599175440 -1.67E-04
    32 Broy./Diag. 0.10E+00    6.9     0.00001792       -47.1599772345 -5.97E-05
    33 Broy./Diag. 0.10E+00    7.0     0.00010929       -47.1597223361  2.55E-04
    34 Broy./Diag. 0.10E+00    6.4     0.00001337       -47.1594675541  2.55E-04
    35 Broy./Diag. 0.10E+00    6.7     0.00001243       -47.1595666860 -9.91E-05
    36 Broy./Diag. 0.10E+00    7.0     0.00001888       -47.1594503914  1.16E-04
    37 Broy./Diag. 0.10E+00    6.5     0.00001045       -47.1593308063  1.20E-04
    38 Broy./Diag. 0.10E+00    7.1     0.00001103       -47.1591760664  1.55E-04
    39 Broy./Diag. 0.10E+00    6.6     0.00001294       -47.1593115945 -1.36E-04
    40 Broy./Diag. 0.10E+00    6.9     0.00001467       -47.1593558884 -4.43E-05
    41 Broy./Diag. 0.10E+00    6.9     0.00000794       -47.1593643624 -8.47E-06
    42 Broy./Diag. 0.10E+00    6.7     0.00004681       -47.1592674834  9.69E-05
    43 Broy./Diag. 0.10E+00    7.0     0.00001200       -47.1592012246  6.63E-05
    44 Broy./Diag. 0.10E+00    6.7     0.00001491       -47.1592730155 -7.18E-05
    45 Broy./Diag. 0.10E+00    6.9     0.00000834       -47.1593770589 -1.04E-04
    46 Broy./Diag. 0.10E+00    6.8     0.00000746       -47.1593852297 -8.17E-06
    47 Broy./Diag. 0.10E+00    7.0     0.00000634       -47.1593773716  7.86E-06
    48 Broy./Diag. 0.10E+00    6.6     0.00000594       -47.1593913153 -1.39E-05
    49 Broy./Diag. 0.10E+00    7.0     0.00000903       -47.1594040281 -1.27E-05
    50 Broy./Diag. 0.10E+00    6.8     0.00000444       -47.1593979157  6.11E-06
    51 Broy./Diag. 0.10E+00    7.0     0.00000873       -47.1593717027  2.62E-05
    52 Broy./Diag. 0.10E+00    6.7     0.00000610       -47.1593640601  7.64E-06
    53 Broy./Diag. 0.10E+00    7.0     0.00000306       -47.1593416978  2.24E-05
    54 Broy./Diag. 0.10E+00    6.7     0.00000493       -47.1593546684 -1.30E-05
    55 Broy./Diag. 0.10E+00    6.8     0.00000590       -47.1593684516 -1.38E-05
    56 Broy./Diag. 0.10E+00    6.9     0.00000125       -47.1593711792 -2.73E-06
    57 Broy./Diag. 0.10E+00    6.9     0.00000692       -47.1593794250 -8.25E-06
    58 Broy./Diag. 0.10E+00    6.7     0.00000163       -47.1593893218 -9.90E-06
    59 Broy./Diag. 0.10E+00    6.9     0.00000607       -47.1593776429  1.17E-05
    60 Broy./Diag. 0.10E+00    6.9     0.00000417       -47.1593617451  1.59E-05
    61 Broy./Diag. 0.10E+00    6.9     0.00000302       -47.1593612350  5.10E-07
    62 Broy./Diag. 0.10E+00    6.7     0.00000105       -47.1593626021 -1.37E-06
    63 Broy./Diag. 0.10E+00    7.0     0.00000220       -47.1593620323  5.70E-07
    64 Broy./Diag. 0.10E+00    6.7     0.00000117       -47.1593600129  2.02E-06
    65 Broy./Diag. 0.10E+00    6.9     0.00000158       -47.1593609179 -9.05E-07
    66 Broy./Diag. 0.10E+00    6.9     0.00000228       -47.1593500142  1.09E-05
    67 Broy./Diag. 0.10E+00    6.9     0.00000363       -47.1593445395  5.47E-06
    68 Broy./Diag. 0.10E+00    6.8     0.00000112       -47.1593545394 -1.00E-05
    69 Broy./Diag. 0.10E+00    6.8     0.00000150       -47.1593493866  5.15E-06
    70 Broy./Diag. 0.10E+00    6.8     0.00000154       -47.1593477194  1.67E-06
    71 Broy./Diag. 0.10E+00    6.8     0.00000186       -47.1593507752 -3.06E-06
    72 Broy./Diag. 0.10E+00    6.9     0.00000059       -47.1593536411 -2.87E-06
    73 Broy./Diag. 0.10E+00    7.0     0.00000125       -47.1593530846  5.57E-07
    74 Broy./Diag. 0.10E+00    6.7     0.00000311       -47.1593519327  1.15E-06
    75 Broy./Diag. 0.10E+00    6.9     0.00000056       -47.1593481052  3.83E-06
    76 Broy./Diag. 0.10E+00    6.7     0.00000129       -47.1593472793  8.26E-07
    77 Broy./Diag. 0.10E+00    6.8     0.00000186       -47.1593474044 -1.25E-07
    78 Broy./Diag. 0.10E+00    6.8     0.00000101       -47.1593451727  2.23E-06
    79 Broy./Diag. 0.10E+00    6.8     0.00000139       -47.1593469071 -1.73E-06
    80 Broy./Diag. 0.10E+00    7.0     0.00000055       -47.1593438961  3.01E-06
    81 Broy./Diag. 0.10E+00    6.8     0.00000027       -47.1593410664  2.83E-06

  *** SCF run converged in    81 steps ***


  Electronic density on regular grids:         -9.0001228222       -0.0001228222
  Core density on regular grids:                9.0000000000       -0.0000000000
  Total charge density on r-space grids:       -0.0001228222
  Total charge density g-space grids:          -0.0001228222

  Overlap energy of the core charge distribution:               0.00000000000000
  Self energy of the core charge distribution:                -96.60649019442629
  Core Hamiltonian energy:                                     29.74217474962355
  Hartree energy:                                              26.74705293567688
  Exchange-correlation energy:                                 -7.04207725093369
  Dispersion energy:                                           -0.00000130538029
  Electronic entropic energy:                                  -0.00000000096183
  Fermi energy:                                                -0.08527460603145

  Total energy:                                               -47.15934106639332

  outer SCF iter =    1 RMS gradient =   0.27E-06 energy =        -47.1593410664
  outer SCF loop converged in   1 iterations or   81 steps


  Integrated absolute spin density  :                               1.0000167123
  WARNING: S**2 computation does not yet treat fractional occupied orbitals

 *** WARNING in qs_loc_utils.F:1387 :: User requested the calculation of ***
 *** the localized wavefunction but the section LOCALIZE was not         ***
 *** specified. Localization will not be performed!                      ***


 -------------------------------------------------------------------------------
 -                                                                             -
 -  BSSE CALCULATION         FRAGMENT CONF: 11        FRAGMENT SUBCONF: 11     -
 -                           CHARGE =     0           MULTIPLICITY =     0     -
 -                                                                             -
 -                 ATOM INDEX                              ATOM NAME           -
 -                 ----------                              ---------           -
 -                      1                                   C                  -
 -                      2                                   C                  -
 -                      3                                   C                  -
 -                      4                                   C                  -
 -                      5                                   C                  -
 -                      6                                   C                  -
 -                      7                                   C                  -
 -                      8                                   C                  -
 -                      9                                   C                  -
 -                     10                                   C                  -
 -                     11                                   C                  -
 -                     12                                   C                  -
 -                     13                                   C                  -
 -                     14                                   C                  -
 -                     15                                   C                  -
 -                     16                                   C                  -
 -                     17                                   C                  -
 -                     18                                   C                  -
 -                     19                                   C                  -
 -                     20                                   C                  -
 -                     21                                   C                  -
 -                     22                                   C                  -
 -                     23                                   C                  -
 -                     24                                   C                  -
 -                     25                                   C                  -
 -                     26                                   C                  -
 -                     27                                   C                  -
 -                     28                                   C                  -
 -                     29                                   C                  -
 -                     30                                   C                  -
 -                     31                                   C                  -
 -                     32                                   C                  -
 -                     33                                   C                  -
 -                     34                                   C                  -
 -                     35                                   C                  -
 -                     36                                   C                  -
 -                     37                                   C                  -
 -                     38                                   C                  -
 -                     39                                   C                  -
 -                     40                                   C                  -
 -                     41                                   C                  -
 -                     42                                   C                  -
 -                     43                                   C                  -
 -                     44                                   C                  -
 -                     45                                   C                  -
 -                     46                                   C                  -
 -                     47                                   C                  -
 -                     48                                   C                  -
 -                     49                                   C                  -
 -                     50                                   C                  -
 -                     51                                   C                  -
 -                     52                                   C                  -
 -                     53                                   C                  -
 -                     54                                   C                  -
 -                     55                                   C                  -
 -                     56                                   C                  -
 -                     57                                   C                  -
 -                     58                                   C                  -
 -                     59                                   C                  -
 -                     60                                   C                  -
 -                     61                                   C                  -
 -                     62                                   C                  -
 -                     63                                   C                  -
 -                     64                                   C                  -
 -                     65                                   C                  -
 -                     66                                   C                  -
 -                     67                                   C                  -
 -                     68                                   C                  -
 -                     69                                   C                  -
 -                     70                                   C                  -
 -                     71                                   C                  -
 -                     72                                   C                  -
 -                     73                                   C                  -
 -                     74                                   C                  -
 -                     75                                   C                  -
 -                     76                                   C                  -
 -                     77                                   C                  -
 -                     78                                   C                  -
 -                     79                                   C                  -
 -                     80                                   C                  -
 -                     81                                   C                  -
 -                     82                                   C                  -
 -                     83                                   C                  -
 -                     84                                   C                  -
 -                     85                                   C                  -
 -                     86                                   C                  -
 -                     87                                   C                  -
 -                     88                                   C                  -
 -                     89                                   C                  -
 -                     90                                   C                  -
 -                     91                                   C                  -
 -                     92                                   C                  -
 -                     93                                   C                  -
 -                     94                                   C                  -
 -                     95                                   C                  -
 -                     96                                   C                  -
 -                     97                                   C                  -
 -                     98                                   C                  -
 -                     99                                   C                  -
 -                    100                                   C                  -
 -                    101                                   C                  -
 -                    102                                   C                  -
 -                    103                                   C                  -
 -                    104                                   C                  -
 -                    105                                   C                  -
 -                    106                                   C                  -
 -                    107                                   C                  -
 -                    108                                   C                  -
 -                    109                                   C                  -
 -                    110                                   C                  -
 -                    111                                   C                  -
 -                    112                                   C                  -
 -                    113                                   H                  -
 -                    114                                   H                  -
 -                    115                                   H                  -
 -                    116                                   H                  -
 -                    117                                   H                  -
 -                    118                                   H                  -
 -                    119                                   H                  -
 -                    120                                   H                  -
 -                    121                                   H                  -
 -                    122                                   H                  -
 -                    123                                   H                  -
 -                    124                                   H                  -
 -                    125                                   H                  -
 -                    126                                   H                  -
 -                    127                                   H                  -
 -                    128                                   H                  -
 -                    129                                   Na                 -
 -------------------------------------------------------------------------------

 *******************************************************************************
 *******************************************************************************
 **                                                                           **
 **     #####                         ##              ##                      **
 **    ##   ##            ##          ##              ##                      **
 **   ##     ##                       ##            ######                    **
 **   ##     ##  ##   ##  ##   #####  ##  ##   ####   ##    #####    #####    **
 **   ##     ##  ##   ##  ##  ##      ## ##   ##      ##   ##   ##  ##   ##   **
 **   ##  ## ##  ##   ##  ##  ##      ####     ###    ##   ######   ######    **
 **    ##  ###   ##   ##  ##  ##      ## ##      ##   ##   ##       ##        **
 **     #######   #####   ##   #####  ##  ##  ####    ##    #####   ##        **
 **           ##                                                    ##        **
 **                                                                           **
 **                                                ... make the atoms dance   **
 **                                                                           **
 **            Copyright (C) by CP2K developers group (2000 - 2018)           **
 **                                                                           **
 *******************************************************************************


 TOTAL NUMBERS AND MAXIMUM NUMBERS

  Total number of            - Atomic kinds:                                   3
                             - Atoms:                                        129
                             - Shell sets:                                   129
                             - Shells:                                       613
                             - Primitive Cartesian functions:                647
                             - Cartesian basis functions:                   1657
                             - Spherical basis functions:                   1545

  Maximum angular momentum of- Orbital basis functions:                        2
                             - Local part of the GTH pseudopotential:          2
                             - Non-local part of the GTH pseudopotential:      1


 SCF PARAMETERS         Density guess:                                    ATOMIC
                        --------------------------------------------------------
                        max_scf:                                             400
                        max_scf_history:                                       0
                        max_diis:                                              4
                        --------------------------------------------------------
                        eps_scf:                                        3.00E-07
                        eps_scf_history:                                0.00E+00
                        eps_diis:                                       1.00E-01
                        eps_eigval:                                     1.00E-05
                        --------------------------------------------------------
                        level_shift [a.u.]:                                 0.00
                        added MOs                                       100  100
                        --------------------------------------------------------
                        Mixing method:                            BROYDEN_MIXING
                                                charge density mixing in g-space
                        --------------------------------------------------------
                        Smear method:                                FERMI_DIRAC
                        Electronic temperature [K]:                        300.0
                        Electronic temperature [a.u.]:                  9.50E-04
                        Accuracy threshold:                             1.00E-10
                        --------------------------------------------------------
                        Outer loop SCF in use 
                        No variables optimised in outer loop
                        eps_scf                                         1.00E-06
                        max_scf                                              100
                        DIIS optimization
                        DIIS buffer length                                     3
                        step_size                                       5.00E-01

 Spin 1

 Number of electrons:                                                        237
 Number of occupied orbitals:                                                237
 Number of molecular orbitals:                                               337

 Spin 2

 Number of electrons:                                                        236
 Number of occupied orbitals:                                                236
 Number of molecular orbitals:                                               336

 Number of orbital functions:                                               1545
 Number of independent orbital functions:                                   1545

 Extrapolation method: initial_guess


 SCF WAVEFUNCTION OPTIMIZATION

  Step     Update method      Time    Convergence         Total energy    Change
  ------------------------------------------------------------------------------
     1 NoMix/Diag. 0.10E+00    3.2     0.50244158      -683.6309951167 -6.84E+02
     2 Broy./Diag. 0.10E+00    6.4     0.04431816      -656.3542491547  2.73E+01
     3 Broy./Diag. 0.10E+00    5.6     7.58084369      -672.5963428757 -1.62E+01
     4 Broy./Diag. 0.10E+00    5.9     7.58080893      -646.2810799784  2.63E+01
     5 Broy./Diag. 0.10E+00    5.9     6.96233948      -683.9989988056 -3.77E+01
     6 Broy./Diag. 0.10E+00    6.1     6.96233773      -666.1515671673  1.78E+01
     7 Broy./Diag. 0.10E+00    6.7     0.06340828      -687.0336606788 -2.09E+01
     8 Broy./Diag. 0.10E+00    6.6     7.49655368      -688.1209411429 -1.09E+00
     9 Broy./Diag. 0.10E+00    7.1     7.49654788      -676.3827997254  1.17E+01
    10 Broy./Diag. 0.10E+00    7.0     7.61392136      -688.5885950316 -1.22E+01
    11 Broy./Diag. 0.10E+00    7.5     7.61693975      -644.2143863797  4.44E+01
    12 Broy./Diag. 0.10E+00    7.4     7.65804035      -688.8876179315 -4.47E+01
    13 Broy./Diag. 0.10E+00    6.9     7.65803957      -622.7196951853  6.62E+01
    14 Broy./Diag. 0.10E+00    7.4     0.00576168      -689.0929530644 -6.64E+01
    15 Broy./Diag. 0.10E+00    6.9     0.02960274      -689.5036632953 -4.11E-01
    16 Broy./Diag. 0.10E+00    7.6     0.01350295      -690.2668446324 -7.63E-01
    17 Broy./Diag. 0.10E+00    7.0     0.00864940      -690.4742359078 -2.07E-01
    18 Broy./Diag. 0.10E+00    7.5     0.01085808      -690.5398381718 -6.56E-02
    19 Broy./Diag. 0.10E+00    7.1     0.00571638      -690.5149325360  2.49E-02
    20 Broy./Diag. 0.10E+00    7.4     0.01290378      -690.4296113392  8.53E-02
    21 Broy./Diag. 0.10E+00    7.5     0.01110805      -690.4887131706 -5.91E-02
    22 Broy./Diag. 0.10E+00    6.9     0.29776630      -690.5459014450 -5.72E-02
    23 Broy./Diag. 0.10E+00    7.5     0.27167660      -691.1696162612 -6.24E-01
    24 Broy./Diag. 0.10E+00    6.9     0.02442397      -690.6791283950  4.90E-01
    25 Broy./Diag. 0.10E+00    7.5     0.03351205      -690.7156062705 -3.65E-02
    26 Broy./Diag. 0.10E+00    6.6     0.06902033      -690.7952507335 -7.96E-02
    27 Broy./Diag. 0.10E+00    7.5     0.00512554      -690.9170640599 -1.22E-01
    28 Broy./Diag. 0.10E+00    6.4     0.07289946      -690.8844650228  3.26E-02
    29 Broy./Diag. 0.10E+00    7.5     0.01743877      -690.7598420587  1.25E-01
    30 Broy./Diag. 0.10E+00    6.6     0.02914175      -690.7766801172 -1.68E-02
    31 Broy./Diag. 0.10E+00    7.2     0.01171149      -690.8148998940 -3.82E-02
    32 Broy./Diag. 0.10E+00    6.7     0.02403661      -690.7937276074  2.12E-02
    33 Broy./Diag. 0.10E+00    7.0     0.02307029      -690.7534351876  4.03E-02
    34 Broy./Diag. 0.10E+00    6.5     0.01218670      -690.7962377136 -4.28E-02
    35 Broy./Diag. 0.10E+00    6.9     0.00847177      -690.8312608047 -3.50E-02
    36 Broy./Diag. 0.10E+00    6.7     0.00074621      -690.8348509865 -3.59E-03
    37 Broy./Diag. 0.10E+00    7.1     0.00273112      -690.8478973017 -1.30E-02
    38 Broy./Diag. 0.10E+00    6.8     0.00141375      -690.8525295227 -4.63E-03
    39 Broy./Diag. 0.10E+00    7.0     0.00104122      -690.8613007590 -8.77E-03
    40 Broy./Diag. 0.10E+00    7.0     0.00175199      -690.8657039024 -4.40E-03
    41 Broy./Diag. 0.10E+00    7.1     0.00029251      -690.8666455038 -9.42E-04
    42 Broy./Diag. 0.10E+00    6.8     0.00148037      -690.8640392226  2.61E-03
    43 Broy./Diag. 0.10E+00    6.8     0.00408039      -690.8626971710  1.34E-03
    44 Broy./Diag. 0.10E+00    7.0     0.00268545      -690.8686911959 -5.99E-03
    45 Broy./Diag. 0.10E+00    6.7     0.00094080      -690.8657357536  2.96E-03
    46 Broy./Diag. 0.10E+00    7.0     0.00168633      -690.8670391946 -1.30E-03
    47 Broy./Diag. 0.10E+00    6.7     0.00024538      -690.8650783702  1.96E-03
    48 Broy./Diag. 0.10E+00    7.0     0.00257346      -690.8650135748  6.48E-05
    49 Broy./Diag. 0.10E+00    6.7     0.00144746      -690.8675470279 -2.53E-03
    50 Broy./Diag. 0.10E+00    6.8     0.00025973      -690.8650704352  2.48E-03
    51 Broy./Diag. 0.10E+00    7.0     0.00119990      -690.8651911484 -1.21E-04
    52 Broy./Diag. 0.10E+00    6.8     0.00075567      -690.8672194581 -2.03E-03
    53 Broy./Diag. 0.10E+00    6.8     0.00014215      -690.8661398530  1.08E-03
    54 Broy./Diag. 0.10E+00    7.0     0.00051156      -690.8664398846 -3.00E-04
    55 Broy./Diag. 0.10E+00    6.7     0.00083773      -690.8663129014  1.27E-04
    56 Broy./Diag. 0.10E+00    6.9     0.00073738      -690.8671402074 -8.27E-04
    57 Broy./Diag. 0.10E+00    6.9     0.00026072      -690.8661382079  1.00E-03
    58 Broy./Diag. 0.10E+00    6.8     0.00070570      -690.8663026281 -1.64E-04
    59 Broy./Diag. 0.10E+00    6.8     0.00083827      -690.8664249209 -1.22E-04
    60 Broy./Diag. 0.10E+00    6.9     0.00030531      -690.8675069136 -1.08E-03
    61 Broy./Diag. 0.10E+00    6.7     0.00047125      -690.8674696874  3.72E-05
    62 Broy./Diag. 0.10E+00    7.0     0.00069800      -690.8667082119  7.61E-04
    63 Broy./Diag. 0.10E+00    6.8     0.00065560      -690.8669503045 -2.42E-04
    64 Broy./Diag. 0.10E+00    7.0     0.00068977      -690.8665824412  3.68E-04
    65 Broy./Diag. 0.10E+00    6.7     0.00020244      -690.8664459590  1.36E-04
    66 Broy./Diag. 0.10E+00    6.9     0.00048908      -690.8667650393 -3.19E-04
    67 Broy./Diag. 0.10E+00    6.7     0.00170757      -690.8664984655  2.67E-04
    68 Broy./Diag. 0.10E+00    6.6     0.00118359      -690.8674903910 -9.92E-04
[...]
   122 Broy./Diag. 0.10E+00    7.5     0.00043635      -690.8665816703  1.86E-04
   123 Broy./Diag. 0.10E+00    6.6     0.00019380      -690.8663615582  2.20E-04
   124 Broy./Diag. 0.10E+00    7.6     0.00044400      -690.8666596799 -2.98E-04
   125 Broy./Diag. 0.10E+00    6.6     0.00017548      -690.8667322052 -7.25E-05
   126 Broy./Diag. 0.10E+00    6.9     0.00004319      -690.8667208978  1.13E-05
   127 Broy./Diag. 0.10E+00    7.2     0.00019360      -690.8666926339  2.83E-05
   128 Broy./Diag. 0.10E+00    6.9     0.00016724      -690.8667601320 -6.75E-05
   129 Broy./Diag. 0.10E+00    7.1     0.00128043      -690.8667371996  2.29E-05
   130 Broy./Diag. 0.10E+00    7.1     0.00241287      -690.8660354317  7.02E-04
   131 Broy./Diag. 0.10E+00    7.1     0.00047839      -690.8674584485 -1.42E-03
   132 Broy./Diag. 0.10E+00    7.6     0.00010572      -690.8670478753  4.11E-04
   133 Broy./Diag. 0.10E+00    7.0     0.00098143      -690.8671165908 -6.87E-05
   134 Broy./Diag. 0.10E+00    7.5     0.00039607      -690.8669496578  1.67E-04
   135 Broy./Diag. 0.10E+00    6.7     0.00080145      -690.8665222538  4.27E-04
   136 Broy./Diag. 0.10E+00    7.5     0.00024016      -690.8662510593  2.71E-04
   137 Broy./Diag. 0.10E+00    6.6     0.00075854      -690.8661310597  1.20E-04
   138 Broy./Diag. 0.10E+00    7.3     0.00044080      -690.8659257039  2.05E-04
   139 Broy./Diag. 0.10E+00    6.8     0.00076929      -690.8656839654  2.42E-04
   140 Broy./Diag. 0.10E+00    7.1     0.00012210      -690.8661343906 -4.50E-04
   141 Broy./Diag. 0.10E+00    6.8     0.00057228      -690.8662198523 -8.55E-05
   142 Broy./Diag. 0.10E+00    7.1     0.00022504      -690.8659000877  3.20E-04
   143 Broy./Diag. 0.10E+00    7.0     0.00039964      -690.8659986511 -9.86E-05
   144 Broy./Diag. 0.10E+00    6.8     0.00060808      -690.8661461427 -1.47E-04
   145 Broy./Diag. 0.10E+00    7.1     0.00007380      -690.8660566368  8.95E-05
   146 Broy./Diag. 0.10E+00    7.1     0.00088343      -690.8661606025 -1.04E-04
   147 Broy./Diag. 0.10E+00    7.5     0.00030291      -690.8657600130  4.01E-04
   148 Broy./Diag. 0.10E+00    6.9     0.00021122      -690.8658675146 -1.08E-04
   149 Broy./Diag. 0.10E+00    7.4     0.00079052      -690.8661534131 -2.86E-04
   150 Broy./Diag. 0.10E+00    6.8     0.00030873      -690.8662098691 -5.65E-05
   151 Broy./Diag. 0.10E+00    7.6     0.00015260      -690.8659419197  2.68E-04
   152 Broy./Diag. 0.10E+00    6.4     0.00002547      -690.8660944683 -1.53E-04
   153 Broy./Diag. 0.10E+00    7.4     0.00016420      -690.8661393781 -4.49E-05
   154 Broy./Diag. 0.10E+00    6.7     0.00077718      -690.8659388049  2.01E-04
   155 Broy./Diag. 0.10E+00    7.2     0.00015514      -690.8657940385  1.45E-04
   156 Broy./Diag. 0.10E+00    6.9     0.00010068      -690.8656326807  1.61E-04
   157 Broy./Diag. 0.10E+00    6.8     0.00086200      -690.8657141445 -8.15E-05
   158 Broy./Diag. 0.10E+00    7.1     0.00074704      -690.8658295468 -1.15E-04
   159 Broy./Diag. 0.10E+00    7.1     0.00011328      -690.8664600341 -6.30E-04
   160 Broy./Diag. 0.10E+00    7.1     0.00022546      -690.8662862867  1.74E-04
   161 Broy./Diag. 0.10E+00    7.0     0.00103457      -690.8665151847 -2.29E-04
   162 Broy./Diag. 0.10E+00    7.5     0.00187202      -690.8661205870  3.95E-04
   163 Broy./Diag. 0.10E+00    6.9     0.00041304      -690.8667508965 -6.30E-04
   164 Broy./Diag. 0.10E+00    7.5     0.00297307      -690.8667645911 -1.37E-05
   165 Broy./Diag. 0.10E+00    6.7     0.00019652      -690.8656191565  1.15E-03
   166 Broy./Diag. 0.10E+00    7.6     0.00020058      -690.8655810489  3.81E-05
   167 Broy./Diag. 0.10E+00    6.6     0.00129797      -690.8654068438  1.74E-04
   168 Broy./Diag. 0.10E+00    7.4     0.00053400      -690.8660792630 -6.72E-04
   169 Broy./Diag. 0.10E+00    6.8     0.00037666      -690.8663028209 -2.24E-04
   170 Broy./Diag. 0.10E+00    7.1     0.00013736      -690.8664029066 -1.00E-04
   171 Broy./Diag. 0.10E+00    6.8     0.00035706      -690.8663470168  5.59E-05
   172 Broy./Diag. 0.10E+00    7.0     0.00023818      -690.8664507802 -1.04E-04
   173 Broy./Diag. 0.10E+00    7.1     0.00038251      -690.8664371613  1.36E-05
   174 Broy./Diag. 0.10E+00    7.0     0.00279501      -690.8664044622  3.27E-05
   175 Broy./Diag. 0.10E+00    7.3     0.00005002      -690.8654915841  9.13E-04
   176 Broy./Diag. 0.10E+00    6.8     0.00028538      -690.8654377500  5.38E-05
   177 Broy./Diag. 0.10E+00    7.5     0.00132680      -690.8654619896 -2.42E-05
   178 Broy./Diag. 0.10E+00    7.0     0.00100752      -690.8661424048 -6.80E-04
   179 Broy./Diag. 0.10E+00    7.5     0.00006138      -690.8664481582 -3.06E-04
   180 Broy./Diag. 0.10E+00    6.6     0.00011997      -690.8665438005 -9.56E-05
   181 Broy./Diag. 0.10E+00    7.5     0.00017171      -690.8664069084  1.37E-04
   182 Broy./Diag. 0.10E+00    6.5     0.00015753      -690.8666108206 -2.04E-04
   183 Broy./Diag. 0.10E+00    7.5     0.00026038      -690.8664478679  1.63E-04
   184 Broy./Diag. 0.10E+00    6.8     0.00304878      -690.8665687418 -1.21E-04
   185 Broy./Diag. 0.10E+00    7.3     0.00005342      -690.8654248631  1.14E-03
   186 Broy./Diag. 0.10E+00    6.9     0.00004545      -690.8653792264  4.56E-05
   187 Broy./Diag. 0.10E+00    7.2     0.00032918      -690.8653737315  5.49E-06
   188 Broy./Diag. 0.10E+00    7.1     0.00027462      -690.8655253222 -1.52E-04
   189 Broy./Diag. 0.10E+00    7.0     0.00179710      -690.8655696616 -4.43E-05
   190 Broy./Diag. 0.10E+00    7.5     0.00009007      -690.8662878084 -7.18E-04
   191 Broy./Diag. 0.10E+00    6.6     0.00002700      -690.8661859347  1.02E-04
   192 Broy./Diag. 0.10E+00    7.7     0.00037469      -690.8662566405 -7.07E-05
   193 Broy./Diag. 0.10E+00    6.8     0.00119201      -690.8662326251  2.40E-05
   194 Broy./Diag. 0.10E+00    7.6     0.00124946      -690.8659699015  2.63E-04
   195 Broy./Diag. 0.10E+00    6.8     0.00005525      -690.8655240741  4.46E-04
   196 Broy./Diag. 0.10E+00    7.6     0.00004014      -690.8654397881  8.43E-05
   197 Broy./Diag. 0.10E+00    6.7     0.00020170      -690.8653938456  4.59E-05
   198 Broy./Diag. 0.10E+00    7.1     0.00009146      -690.8654921589 -9.83E-05
   199 Broy./Diag. 0.10E+00    6.9     0.00071934      -690.8655512375 -5.91E-05
   200 Broy./Diag. 0.10E+00    6.7     0.00029045      -690.8657018812 -1.51E-04
   201 Broy./Diag. 0.10E+00    7.0     0.00038178      -690.8659216829 -2.20E-04
   202 Broy./Diag. 0.10E+00    7.0     0.00047967      -690.8655545242  3.67E-04
   203 Broy./Diag. 0.10E+00    6.9     0.00009637      -690.8655046133  4.99E-05
   204 Broy./Diag. 0.10E+00    6.9     0.00002868      -690.8654433091  6.13E-05
   205 Broy./Diag. 0.10E+00    7.1     0.00157973      -690.8654286189  1.47E-05
   206 Broy./Diag. 0.10E+00    7.0     0.00061197      -690.8660579060 -6.29E-04
   207 Broy./Diag. 0.10E+00    7.5     0.00027666      -690.8662289519 -1.71E-04
   208 Broy./Diag. 0.10E+00    6.9     0.00049197      -690.8661268708  1.02E-04
   209 Broy./Diag. 0.10E+00    7.5     0.00054564      -690.8663433072 -2.16E-04
   210 Broy./Diag. 0.10E+00    6.8     0.00109565      -690.8660374172  3.06E-04
   211 Broy./Diag. 0.10E+00    7.6     0.00112503      -690.8667248678 -6.87E-04
   212 Broy./Diag. 0.10E+00    6.5     0.00165512      -690.8659117300  8.13E-04
   213 Broy./Diag. 0.10E+00    7.5     0.00012702      -690.8656502339  2.61E-04
   214 Broy./Diag. 0.10E+00    6.9     0.00004365      -690.8656184275  3.18E-05
   215 Broy./Diag. 0.10E+00    7.2     0.00006390      -690.8656315463 -1.31E-05
   216 Broy./Diag. 0.10E+00    6.9     0.00002339      -690.8656185075  1.30E-05
   217 Broy./Diag. 0.10E+00    7.0     0.00003258      -690.8656195084 -1.00E-06
   218 Broy./Diag. 0.10E+00    7.1     0.00023154      -690.8656184045  1.10E-06
   219 Broy./Diag. 0.10E+00    6.9     0.00035477      -690.8658029551 -1.85E-04
   220 Broy./Diag. 0.10E+00    7.1     0.00063500      -690.8657492861  5.37E-05
   221 Broy./Diag. 0.10E+00    7.0     0.00024706      -690.8654917575  2.58E-04
   222 Broy./Diag. 0.10E+00    7.5     0.00039921      -690.8655861406 -9.44E-05
   223 Broy./Diag. 0.10E+00    6.9     0.00059375      -690.8656338653 -4.77E-05
   224 Broy./Diag. 0.10E+00    7.5     0.00077825      -690.8657182968 -8.44E-05
   225 Broy./Diag. 0.10E+00    6.7     0.00025797      -690.8660800045 -3.62E-04
   226 Broy./Diag. 0.10E+00    7.6     0.00026810      -690.8660340691  4.59E-05
   227 Broy./Diag. 0.10E+00    6.5     0.00005401      -690.8661019739 -6.79E-05
   228 Broy./Diag. 0.10E+00    7.4     0.00003583      -690.8661309230 -2.89E-05
   229 Broy./Diag. 0.10E+00    6.8     0.00008848      -690.8661121061  1.88E-05
   230 Broy./Diag. 0.10E+00    7.2     0.00054767      -690.8661586650 -4.66E-05
   231 Broy./Diag. 0.10E+00    6.9     0.00102152      -690.8660364729  1.22E-04
   232 Broy./Diag. 0.10E+00    7.0     0.00171491      -690.8661326964 -9.62E-05
   233 Broy./Diag. 0.10E+00    7.1     0.00126323      -690.8657201900  4.13E-04
   234 Broy./Diag. 0.10E+00    7.0     0.00039875      -690.8659557045 -2.36E-04
   235 Broy./Diag. 0.10E+00    7.2     0.00115980      -690.8661547022 -1.99E-04
   236 Broy./Diag. 0.10E+00    7.0     0.00098207      -690.8659207061  2.34E-04
   237 Broy./Diag. 0.10E+00    7.3     0.00050385      -690.8656571207  2.64E-04
   238 Broy./Diag. 0.10E+00    6.5     0.00011993      -690.8654690819  1.88E-04
   239 Broy./Diag. 0.10E+00    7.5     0.00044513      -690.8656015776 -1.32E-04
   240 Broy./Diag. 0.10E+00    6.7     0.00024917      -690.8656291845 -2.76E-05
   241 Broy./Diag. 0.10E+00    7.4     0.00028466      -690.8655689293  6.03E-05
   242 Broy./Diag. 0.10E+00    6.7     0.00039868      -690.8654947148  7.42E-05
   243 Broy./Diag. 0.10E+00    7.1     0.00065118      -690.8654219452  7.28E-05
   244 Broy./Diag. 0.10E+00    7.0     0.00062160      -690.8655514601 -1.30E-04
   245 Broy./Diag. 0.10E+00    7.1     0.00019279      -690.8654907016  6.08E-05
   246 Broy./Diag. 0.10E+00    6.9     0.00024587      -690.8654888293  1.87E-06
   247 Broy./Diag. 0.10E+00    7.1     0.00013154      -690.8655926365 -1.04E-04
   248 Broy./Diag. 0.10E+00    7.1     0.00023106      -690.8656000549 -7.42E-06
   249 Broy./Diag. 0.10E+00    7.0     0.00071339      -690.8655598535  4.02E-05
   250 Broy./Diag. 0.10E+00    7.0     0.00014276      -690.8654606287  9.92E-05
   251 Broy./Diag. 0.10E+00    6.8     0.00031210      -690.8655181926 -5.76E-05
   252 Broy./Diag. 0.10E+00    7.1     0.00004102      -690.8654670795  5.11E-05
   253 Broy./Diag. 0.10E+00    7.0     0.00009565      -690.8654623747  4.70E-06
   254 Broy./Diag. 0.10E+00    7.4     0.00011571      -690.8655180049 -5.56E-05
   255 Broy./Diag. 0.10E+00    6.7     0.00002644      -690.8654502562  6.77E-05
   256 Broy./Diag. 0.10E+00    7.5     0.00021242      -690.8655551289 -1.05E-04
   257 Broy./Diag. 0.10E+00    6.8     0.00003529      -690.8654988571  5.63E-05
   258 Broy./Diag. 0.10E+00    7.5     0.00005978      -690.8654222098  7.66E-05
   259 Broy./Diag. 0.10E+00    6.7     0.00200594      -690.8653117552  1.10E-04
   260 Broy./Diag. 0.10E+00    7.6     0.00004402      -690.8660041789 -6.92E-04
   261 Broy./Diag. 0.10E+00    6.7     0.00011563      -690.8659657451  3.84E-05
   262 Broy./Diag. 0.10E+00    7.1     0.00003998      -690.8659470338  1.87E-05
   263 Broy./Diag. 0.10E+00    6.5     0.00011496      -690.8659745620 -2.75E-05
   264 Broy./Diag. 0.10E+00    7.1     0.00079572      -690.8658904840  8.41E-05
   265 Broy./Diag. 0.10E+00    6.9     0.00049169      -690.8661881730 -2.98E-04
   266 Broy./Diag. 0.10E+00    6.9     0.00123249      -690.8660966300  9.15E-05
   267 Broy./Diag. 0.10E+00    7.2     0.00002420      -690.8663491340 -2.53E-04
   268 Broy./Diag. 0.10E+00    6.9     0.00001694      -690.8663683606 -1.92E-05
   269 Broy./Diag. 0.10E+00    7.1     0.00020741      -690.8664159815 -4.76E-05
   270 Broy./Diag. 0.10E+00    7.0     0.00017257      -690.8664261237 -1.01E-05
   271 Broy./Diag. 0.10E+00    7.6     0.00196396      -690.8664191263  7.00E-06
   272 Broy./Diag. 0.10E+00    6.8     0.00007902      -690.8658644993  5.55E-04
   273 Broy./Diag. 0.10E+00    7.6     0.00012645      -690.8659341203 -6.96E-05
   274 Broy./Diag. 0.10E+00    6.6     0.00021858      -690.8658047497  1.29E-04
   275 Broy./Diag. 0.10E+00    7.6     0.00019263      -690.8658677837 -6.30E-05
   276 Broy./Diag. 0.10E+00    6.7     0.00114745      -690.8658848485 -1.71E-05
   277 Broy./Diag. 0.10E+00    7.2     0.00005496      -690.8655152111  3.70E-04
   278 Broy./Diag. 0.10E+00    6.7     0.00017248      -690.8655161391 -9.28E-07
   279 Broy./Diag. 0.10E+00    7.1     0.00003140      -690.8655178855 -1.75E-06
   280 Broy./Diag. 0.10E+00    6.9     0.00012425      -690.8655023225  1.56E-05
   281 Broy./Diag. 0.10E+00    7.0     0.00024941      -690.8655005319  1.79E-06
   282 Broy./Diag. 0.10E+00    7.1     0.00005277      -690.8654609269  3.96E-05
   283 Broy./Diag. 0.10E+00    7.0     0.00008797      -690.8654309095  3.00E-05
   284 Broy./Diag. 0.10E+00    6.9     0.00105263      -690.8655188154 -8.79E-05
   285 Broy./Diag. 0.10E+00    6.8     0.00118734      -690.8658076685 -2.89E-04
   286 Broy./Diag. 0.10E+00    6.9     0.00034560      -690.8652502567  5.57E-04
   287 Broy./Diag. 0.10E+00    6.7     0.00009404      -690.8656353228 -3.85E-04
   288 Broy./Diag. 0.10E+00    7.1     0.00004210      -690.8657523412 -1.17E-04
   289 Broy./Diag. 0.10E+00    7.1     0.00007349      -690.8657325233  1.98E-05
   290 Broy./Diag. 0.10E+00    7.5     0.00070037      -690.8657237195  8.80E-06
   291 Broy./Diag. 0.10E+00    6.7     0.00113371      -690.8659433636 -2.20E-04
   292 Broy./Diag. 0.10E+00    7.7     0.00083521      -690.8662497000 -3.06E-04
   293 Broy./Diag. 0.10E+00    6.7     0.00037459      -690.8663461083 -9.64E-05
   294 Broy./Diag. 0.10E+00    7.7     0.00010759      -690.8662776203  6.85E-05
   295 Broy./Diag. 0.10E+00    6.7     0.00122553      -690.8661670691  1.11E-04
   296 Broy./Diag. 0.10E+00    7.3     0.00068345      -690.8659611125  2.06E-04
   297 Broy./Diag. 0.10E+00    6.5     0.00081409      -690.8655941909  3.67E-04
   298 Broy./Diag. 0.10E+00    7.1     0.00011099      -690.8654949440  9.92E-05
   299 Broy./Diag. 0.10E+00    7.0     0.00012892      -690.8654691990  2.57E-05
   300 Broy./Diag. 0.10E+00    7.0     0.00088967      -690.8652540588  2.15E-04
   301 Broy./Diag. 0.10E+00    6.3     0.00220509      -690.8655678302 -3.14E-04
   302 Broy./Diag. 0.10E+00    6.9     0.00047385      -690.8662039944 -6.36E-04
   303 Broy./Diag. 0.10E+00    7.0     0.00053394      -690.8663965570 -1.93E-04
   304 Broy./Diag. 0.10E+00    7.0     0.00003547      -690.8665014598 -1.05E-04
   305 Broy./Diag. 0.10E+00    6.8     0.00013247      -690.8665104809 -9.02E-06
   306 Broy./Diag. 0.10E+00    6.7     0.00150279      -690.8664409671  6.95E-05
   307 Broy./Diag. 0.10E+00    6.4     0.00238274      -690.8661618079  2.79E-04
   308 Broy./Diag. 0.10E+00    6.7     0.00014329      -690.8654339025  7.28E-04
   309 Broy./Diag. 0.10E+00    7.0     0.00043694      -690.8653728252  6.11E-05
   310 Broy./Diag. 0.10E+00    7.2     0.00014476      -690.8654932501 -1.20E-04
   311 Broy./Diag. 0.10E+00    6.9     0.00010140      -690.8654767537  1.65E-05
   312 Broy./Diag. 0.10E+00    6.6     0.00097098      -690.8655029330 -2.62E-05
   313 Broy./Diag. 0.10E+00    7.0     0.00047929      -690.8656349662 -1.32E-04
   314 Broy./Diag. 0.10E+00    7.3     0.00038286      -690.8656176681  1.73E-05
   315 Broy./Diag. 0.10E+00    6.8     0.00035159      -690.8657411625 -1.23E-04
   316 Broy./Diag. 0.10E+00    6.9     0.00034641      -690.8657011131  4.00E-05
   317 Broy./Diag. 0.10E+00    7.3     0.00052752      -690.8657764421 -7.53E-05
   318 Broy./Diag. 0.10E+00    6.6     0.00031331      -690.8654327031  3.44E-04
   319 Broy./Diag. 0.10E+00    7.0     0.00115320      -690.8656186057 -1.86E-04
   320 Broy./Diag. 0.10E+00    7.4     0.00005606      -690.8652819916  3.37E-04
   321 Broy./Diag. 0.10E+00    6.6     0.00008007      -690.8652995461 -1.76E-05
   322 Broy./Diag. 0.10E+00    7.5     0.00038832      -690.8653199347 -2.04E-05
   323 Broy./Diag. 0.10E+00    6.5     0.00098171      -690.8655794467 -2.60E-04
   324 Broy./Diag. 0.10E+00    7.4     0.00048549      -690.8657651337 -1.86E-04
   325 Broy./Diag. 0.10E+00    6.7     0.00046734      -690.8655822785  1.83E-04
   326 Broy./Diag. 0.10E+00    7.3     0.00023997      -690.8655935801 -1.13E-05
   327 Broy./Diag. 0.10E+00    6.9     0.00017419      -690.8654623742  1.31E-04
   328 Broy./Diag. 0.10E+00    7.1     0.00055251      -690.8656465151 -1.84E-04
   329 Broy./Diag. 0.10E+00    7.0     0.00013244      -690.8655669180  7.96E-05
   330 Broy./Diag. 0.10E+00    7.0     0.00006904      -690.8653684129  1.99E-04
   331 Broy./Diag. 0.10E+00    7.2     0.00010120      -690.8653718801 -3.47E-06
   332 Broy./Diag. 0.10E+00    7.0     0.00115664      -690.8653811577 -9.28E-06
   333 Broy./Diag. 0.10E+00    7.5     0.00127265      -690.8657146360 -3.33E-04
   334 Broy./Diag. 0.10E+00    6.8     0.00054904      -690.8654385136  2.76E-04
   335 Broy./Diag. 0.10E+00    7.5     0.00020489      -690.8655781418 -1.40E-04
   336 Broy./Diag. 0.10E+00    6.4     0.00005155      -690.8655620417  1.61E-05
   337 Broy./Diag. 0.10E+00    7.5     0.00007691      -690.8656445269 -8.25E-05
   338 Broy./Diag. 0.10E+00    6.5     0.00014986      -690.8655449251  9.96E-05
   339 Broy./Diag. 0.10E+00    7.5     0.00025704      -690.8654963206  4.86E-05
   340 Broy./Diag. 0.10E+00    6.5     0.00019830      -690.8654731893  2.31E-05
   341 Broy./Diag. 0.10E+00    7.3     0.00015970      -690.8656507923 -1.78E-04
   342 Broy./Diag. 0.10E+00    6.6     0.00093672      -690.8656713255 -2.05E-05
   343 Broy./Diag. 0.10E+00    7.0     0.00074324      -690.8654482904  2.23E-04
   344 Broy./Diag. 0.10E+00    6.6     0.00031622      -690.8655180290 -6.97E-05
   345 Broy./Diag. 0.10E+00    7.0     0.00028078      -690.8655366253 -1.86E-05
   346 Broy./Diag. 0.10E+00    6.5     0.00003030      -690.8654370286  9.96E-05
   347 Broy./Diag. 0.10E+00    7.0     0.00007815      -690.8654292347  7.79E-06
   348 Broy./Diag. 0.10E+00    6.9     0.00013782      -690.8655354515 -1.06E-04
   349 Broy./Diag. 0.10E+00    7.0     0.00023885      -690.8656056850 -7.02E-05
   350 Broy./Diag. 0.10E+00    6.9     0.00006871      -690.8656851695 -7.95E-05
   351 Broy./Diag. 0.10E+00    6.9     0.00013279      -690.8655860161  9.92E-05
   352 Broy./Diag. 0.10E+00    7.1     0.00031062      -690.8656415803 -5.56E-05
   353 Broy./Diag. 0.10E+00    7.0     0.00012320      -690.8655324747  1.09E-04
   354 Broy./Diag. 0.10E+00    6.9     0.00076894      -690.8655088468  2.36E-05
   355 Broy./Diag. 0.10E+00    6.7     0.00156483      -690.8655153345 -6.49E-06
   356 Broy./Diag. 0.10E+00    6.9     0.00216568      -690.8655978091 -8.25E-05
   357 Broy./Diag. 0.10E+00    6.9     0.00001600      -690.8662366196 -6.39E-04
   358 Broy./Diag. 0.10E+00    7.1     0.00016316      -690.8662933087 -5.67E-05
   359 Broy./Diag. 0.10E+00    6.8     0.00023046      -690.8661417917  1.52E-04
   360 Broy./Diag. 0.10E+00    7.0     0.00011096      -690.8662049302 -6.31E-05
   361 Broy./Diag. 0.10E+00    6.9     0.00085055      -690.8661149684  9.00E-05
   362 Broy./Diag. 0.10E+00    7.1     0.00197120      -690.8658089654  3.06E-04
   363 Broy./Diag. 0.10E+00    6.9     0.00047735      -690.8651799379  6.29E-04
   364 Broy./Diag. 0.10E+00    7.4     0.00025837      -690.8651658075  1.41E-05
-------------------------------------------------------
Primary job  terminated normally, but 1 process returned
a non-zero exit code. Per user-direction, the job has been aborted.
-------------------------------------------------------
