 DBCSR| Multiplication driver                                               XSMM
 DBCSR| Multrec recursion limit                                              512
 DBCSR| Multiplication stack size                                           1000
 DBCSR| Maximum elements for images                                    UNLIMITED
 DBCSR| Multiplicative factor virtual images                                   1
 DBCSR| Multiplication size stacks                                             3
 DBCSR| Number of 3D layers                                               SINGLE
 DBCSR| Use MPI memory allocation                                              T
 DBCSR| Use RMA algorithm                                                      F
 DBCSR| Use Communication thread                                               T
 DBCSR| Communication thread load                                             87


  **** **** ******  **  PROGRAM STARTED AT               2024-07-25 14:39:56.519
 ***** ** ***  *** **   PROGRAM STARTED ON                            sebnode131
 **    ****   ******    PROGRAM STARTED BY                                luehrs
 ***** **    ** ** **   PROGRAM PROCESS ID                                341371
  **** **  *******  **  PROGRAM STARTED IN /home/luehrs/PhD/Sodium_batteries/Sod
                                           ium-graphene-edge/Zig_zag_3/Hydrogen

 CP2K| version string:                    CP2K version 7.0 (Development Version)
 CP2K| source code revision number:                                             
 CP2K| cp2kflags: libint fftw3 libxc parallel mpi3 scalapack xsmm libderiv_max_a
 CP2K|            m1=8 libint_max_am=9 max_contr=4
 CP2K| is freely available from                            https://www.cp2k.org/
 CP2K| Program compiled at                         Sun Jun 24 14:37:16 CEST 2018
 CP2K| Program compiled on                                            sebstorage
 CP2K| Program compiled for                                Linux-x86-64-gfortran
 CP2K| Data directory path    /home/brehm/Software_Batchnode/2018/Source/cp2k_18
 CP2K| Input file name                                         input.zig-zag.inp

 GLOBAL| Force Environment number                                              1
 GLOBAL| Basis set file name                                      ./BASIS_MOLOPT
 GLOBAL| Potential file name                                    ./GTH_POTENTIALS
 GLOBAL| MM Potential file name                                     MM_POTENTIAL
 GLOBAL| Coordinate file name              graphene_hydrogen_zig-zag_relaxed.xyz
 GLOBAL| Method name                                                        CP2K
 GLOBAL| Project name                                      graphene_zig_zag_BSSE
 GLOBAL| Preferred FFT library                                             FFTW3
 GLOBAL| Preferred diagonalization lib.                                       SL
 GLOBAL| Run type                                                           BSSE
 GLOBAL| All-to-all communication in single precision                          F
 GLOBAL| FFTs using library dependent lengths                                  F
 GLOBAL| Global print level                                                  LOW
 GLOBAL| Total number of message passing processes                            16
 GLOBAL| Number of threads for this process                                    1
 GLOBAL| This output is from process                                           0
 GLOBAL| CPU model name :  AMD EPYC 7513 32-Core Processor

 MEMORY| system memory details [Kb]
 MEMORY|                        rank 0           min           max       average
 MEMORY| MemTotal            131901556     131901556     131901556     131901556
 MEMORY| MemFree              38582304      38582304      38582304      38582304
 MEMORY| Buffers                139776        139776        139776        139776
 MEMORY| Cached                 474320        474320        474320        474320
 MEMORY| Slab                  1286024       1286024       1286024       1286024
 MEMORY| SReclaimable           452324        452324        452324        452324
 MEMORY| MemLikelyFree        39648724      39648724      39648724      39648724


 GENERATE|  Preliminary Number of Bonds generated:                             0
 GENERATE|  Achieved consistency in connectivity generation.

 *******************************************************************************
 *******************************************************************************
 **                                                                           **
 **     #####                         ##              ##                      **
 **    ##   ##            ##          ##              ##                      **
 **   ##     ##                       ##            ######                    **
 **   ##     ##  ##   ##  ##   #####  ##  ##   ####   ##    #####    #####    **
 **   ##     ##  ##   ##  ##  ##      ## ##   ##      ##   ##   ##  ##   ##   **
 **   ##  ## ##  ##   ##  ##  ##      ####     ###    ##   ######   ######    **
 **    ##  ###   ##   ##  ##  ##      ## ##      ##   ##   ##       ##        **
 **     #######   #####   ##   #####  ##  ##  ####    ##    #####   ##        **
 **           ##                                                    ##        **
 **                                                                           **
 **                                                ... make the atoms dance   **
 **                                                                           **
 **            Copyright (C) by CP2K developers group (2000 - 2018)           **
 **                                                                           **
 *******************************************************************************


 TOTAL NUMBERS AND MAXIMUM NUMBERS

  Total number of            - Atomic kinds:                                   3
                             - Atoms:                                        129
                             - Shell sets:                                   129
                             - Shells:                                       613
                             - Primitive Cartesian functions:                647
                             - Cartesian basis functions:                   1657
                             - Spherical basis functions:                   1545

  Maximum angular momentum of- Orbital basis functions:                        2
                             - Local part of the GTH pseudopotential:          2
                             - Non-local part of the GTH pseudopotential:      1


 SCF PARAMETERS         Density guess:                                    ATOMIC
                        --------------------------------------------------------
                        max_scf:                                             400
                        max_scf_history:                                       0
                        max_diis:                                              4
                        --------------------------------------------------------
                        eps_scf:                                        3.00E-07
                        eps_scf_history:                                0.00E+00
                        eps_diis:                                       1.00E-01
                        eps_eigval:                                     1.00E-05
                        --------------------------------------------------------
                        level_shift [a.u.]:                                 0.00
                        added MOs                                       100  100
                        --------------------------------------------------------
                        Mixing method:                            BROYDEN_MIXING
                                                charge density mixing in g-space
                        --------------------------------------------------------
                        Smear method:                                FERMI_DIRAC
                        Electronic temperature [K]:                        300.0
                        Electronic temperature [a.u.]:                  9.50E-04
                        Accuracy threshold:                             1.00E-10
                        --------------------------------------------------------
                        Outer loop SCF in use 
                        No variables optimised in outer loop
                        eps_scf                                         1.00E-06
                        max_scf                                              100
                        DIIS optimization
                        DIIS buffer length                                     3
                        step_size                                       5.00E-01

 -------------------------------------------------------------------------------
 -                                                                             -
 -  BSSE CALCULATION         FRAGMENT CONF: 10        FRAGMENT SUBCONF: 10     -
 -                           CHARGE =     0           MULTIPLICITY =     0     -
 -                                                                             -
 -                 ATOM INDEX                              ATOM NAME           -
 -                 ----------                              ---------           -
 -                      1                                   C                  -
 -                      2                                   C                  -
 -                      3                                   C                  -
 -                      4                                   C                  -
 -                      5                                   C                  -
 -                      6                                   C                  -
 -                      7                                   C                  -
 -                      8                                   C                  -
 -                      9                                   C                  -
 -                     10                                   C                  -
 -                     11                                   C                  -
 -                     12                                   C                  -
 -                     13                                   C                  -
 -                     14                                   C                  -
 -                     15                                   C                  -
 -                     16                                   C                  -
 -                     17                                   C                  -
 -                     18                                   C                  -
 -                     19                                   C                  -
 -                     20                                   C                  -
 -                     21                                   C                  -
 -                     22                                   C                  -
 -                     23                                   C                  -
 -                     24                                   C                  -
 -                     25                                   C                  -
 -                     26                                   C                  -
 -                     27                                   C                  -
 -                     28                                   C                  -
 -                     29                                   C                  -
 -                     30                                   C                  -
 -                     31                                   C                  -
 -                     32                                   C                  -
 -                     33                                   C                  -
 -                     34                                   C                  -
 -                     35                                   C                  -
 -                     36                                   C                  -
 -                     37                                   C                  -
 -                     38                                   C                  -
 -                     39                                   C                  -
 -                     40                                   C                  -
 -                     41                                   C                  -
 -                     42                                   C                  -
 -                     43                                   C                  -
 -                     44                                   C                  -
 -                     45                                   C                  -
 -                     46                                   C                  -
 -                     47                                   C                  -
 -                     48                                   C                  -
 -                     49                                   C                  -
 -                     50                                   C                  -
 -                     51                                   C                  -
 -                     52                                   C                  -
 -                     53                                   C                  -
 -                     54                                   C                  -
 -                     55                                   C                  -
 -                     56                                   C                  -
 -                     57                                   C                  -
 -                     58                                   C                  -
 -                     59                                   C                  -
 -                     60                                   C                  -
 -                     61                                   C                  -
 -                     62                                   C                  -
 -                     63                                   C                  -
 -                     64                                   C                  -
 -                     65                                   C                  -
 -                     66                                   C                  -
 -                     67                                   C                  -
 -                     68                                   C                  -
 -                     69                                   C                  -
 -                     70                                   C                  -
 -                     71                                   C                  -
 -                     72                                   C                  -
 -                     73                                   C                  -
 -                     74                                   C                  -
 -                     75                                   C                  -
 -                     76                                   C                  -
 -                     77                                   C                  -
 -                     78                                   C                  -
 -                     79                                   C                  -
 -                     80                                   C                  -
 -                     81                                   C                  -
 -                     82                                   C                  -
 -                     83                                   C                  -
 -                     84                                   C                  -
 -                     85                                   C                  -
 -                     86                                   C                  -
 -                     87                                   C                  -
 -                     88                                   C                  -
 -                     89                                   C                  -
 -                     90                                   C                  -
 -                     91                                   C                  -
 -                     92                                   C                  -
 -                     93                                   C                  -
 -                     94                                   C                  -
 -                     95                                   C                  -
 -                     96                                   C                  -
 -                     97                                   C                  -
 -                     98                                   C                  -
 -                     99                                   C                  -
 -                    100                                   C                  -
 -                    101                                   C                  -
 -                    102                                   C                  -
 -                    103                                   C                  -
 -                    104                                   C                  -
 -                    105                                   C                  -
 -                    106                                   C                  -
 -                    107                                   C                  -
 -                    108                                   C                  -
 -                    109                                   C                  -
 -                    110                                   C                  -
 -                    111                                   C                  -
 -                    112                                   C                  -
 -                    113                                   H                  -
 -                    114                                   H                  -
 -                    115                                   H                  -
 -                    116                                   H                  -
 -                    117                                   H                  -
 -                    118                                   H                  -
 -                    119                                   H                  -
 -                    120                                   H                  -
 -                    121                                   H                  -
 -                    122                                   H                  -
 -                    123                                   H                  -
 -                    124                                   H                  -
 -                    125                                   H                  -
 -                    126                                   H                  -
 -                    127                                   H                  -
 -                    128                                   H                  -
 -------------------------------------------------------------------------------

 *******************************************************************************
 *******************************************************************************
 **                                                                           **
 **     #####                         ##              ##                      **
 **    ##   ##            ##          ##              ##                      **
 **   ##     ##                       ##            ######                    **
 **   ##     ##  ##   ##  ##   #####  ##  ##   ####   ##    #####    #####    **
 **   ##     ##  ##   ##  ##  ##      ## ##   ##      ##   ##   ##  ##   ##   **
 **   ##  ## ##  ##   ##  ##  ##      ####     ###    ##   ######   ######    **
 **    ##  ###   ##   ##  ##  ##      ## ##      ##   ##   ##       ##        **
 **     #######   #####   ##   #####  ##  ##  ####    ##    #####   ##        **
 **           ##                                                    ##        **
 **                                                                           **
 **                                                ... make the atoms dance   **
 **                                                                           **
 **            Copyright (C) by CP2K developers group (2000 - 2018)           **
 **                                                                           **
 *******************************************************************************


 TOTAL NUMBERS AND MAXIMUM NUMBERS

  Total number of            - Atomic kinds:                                   2
                             - Atoms:                                        128
                             - Shell sets:                                   128
                             - Shells:                                       608
                             - Primitive Cartesian functions:                640
                             - Cartesian basis functions:                   1648
                             - Spherical basis functions:                   1536

  Maximum angular momentum of- Orbital basis functions:                        2
                             - Local part of the GTH pseudopotential:          2
                             - Non-local part of the GTH pseudopotential:      0


 SCF PARAMETERS         Density guess:                                    ATOMIC
                        --------------------------------------------------------
                        max_scf:                                             400
                        max_scf_history:                                       0
                        max_diis:                                              4
                        --------------------------------------------------------
                        eps_scf:                                        3.00E-07
                        eps_scf_history:                                0.00E+00
                        eps_diis:                                       1.00E-01
                        eps_eigval:                                     1.00E-05
                        --------------------------------------------------------
                        level_shift [a.u.]:                                 0.00
                        added MOs                                       100  100
                        --------------------------------------------------------
                        Mixing method:                            BROYDEN_MIXING
                                                charge density mixing in g-space
                        --------------------------------------------------------
                        Smear method:                                FERMI_DIRAC
                        Electronic temperature [K]:                        300.0
                        Electronic temperature [a.u.]:                  9.50E-04
                        Accuracy threshold:                             1.00E-10
                        --------------------------------------------------------
                        Outer loop SCF in use 
                        No variables optimised in outer loop
                        eps_scf                                         1.00E-06
                        max_scf                                              100
                        DIIS optimization
                        DIIS buffer length                                     3
                        step_size                                       5.00E-01

 Spin 1

 Number of electrons:                                                        232
 Number of occupied orbitals:                                                232
 Number of molecular orbitals:                                               332

 Spin 2

 Number of electrons:                                                        232
 Number of occupied orbitals:                                                232
 Number of molecular orbitals:                                               332

 Number of orbital functions:                                               1536
 Number of independent orbital functions:                                   1536

 Extrapolation method: initial_guess


 SCF WAVEFUNCTION OPTIMIZATION

  Step     Update method      Time    Convergence         Total energy    Change
  ------------------------------------------------------------------------------
     1 NoMix/Diag. 0.10E+00    3.6     0.45107924      -636.4164223400 -6.36E+02
     2 Broy./Diag. 0.10E+00    5.8     0.04873670      -609.9994693105  2.64E+01
     3 Broy./Diag. 0.10E+00    6.2     0.14140473      -624.0969567424 -1.41E+01
     4 Broy./Diag. 0.10E+00    5.9     7.62119335      -637.3963755174 -1.33E+01
     5 Broy./Diag. 0.10E+00    6.1     7.62114521      -616.9475589278  2.04E+01
     6 Broy./Diag. 0.10E+00    6.2     7.54112246      -641.0907562051 -2.41E+01
     7 Broy./Diag. 0.10E+00    6.3     7.54111881      -618.4411514006  2.26E+01
     8 Broy./Diag. 0.10E+00    6.7     7.68249005      -641.5206678669 -2.31E+01
     9 Broy./Diag. 0.10E+00    6.7     7.68249160      -594.9997450484  4.65E+01
    10 Broy./Diag. 0.10E+00    6.9     7.57648082      -641.6546162228 -4.67E+01
    11 Broy./Diag. 0.10E+00    7.0     7.57647843      -589.8107681594  5.18E+01
    12 Broy./Diag. 0.10E+00    6.9     7.61522502      -641.8228570110 -5.20E+01
    13 Broy./Diag. 0.10E+00    6.8     7.61522275      -575.0342693749  6.68E+01
    14 Broy./Diag. 0.10E+00    6.7     7.60277533      -641.7278766803 -6.67E+01
    15 Broy./Diag. 0.10E+00    6.7     7.60277180      -597.6183134687  4.41E+01
    16 Broy./Diag. 0.10E+00    6.7     7.59272190      -641.9446174832 -4.43E+01
    17 Broy./Diag. 0.10E+00    6.8     7.59741502      -597.6641652091  4.43E+01
    18 Broy./Diag. 0.10E+00    6.7     7.70982981      -642.0979848782 -4.44E+01
    19 Broy./Diag. 0.10E+00    6.7     7.70982870      -574.3153535022  6.78E+01
    20 Broy./Diag. 0.10E+00    6.9     0.00300300      -642.1854054698 -6.79E+01
    21 Broy./Diag. 0.10E+00    6.9     0.02383531      -642.2589091586 -7.35E-02
    22 Broy./Diag. 0.10E+00    6.8     0.00517044      -642.8486833868 -5.90E-01
    23 Broy./Diag. 0.10E+00    7.0     0.01810698      -642.9610710793 -1.12E-01
    24 Broy./Diag. 0.10E+00    6.8     0.00311364      -643.1868036583 -2.26E-01
    25 Broy./Diag. 0.10E+00    7.3     0.00256520      -643.2787093192 -9.19E-02
    26 Broy./Diag. 0.10E+00    6.8     0.00184785      -643.4568077296 -1.78E-01
    27 Broy./Diag. 0.10E+00    7.4     0.00301360      -643.5003262669 -4.35E-02
    28 Broy./Diag. 0.10E+00    6.4     0.00101410      -643.5908949429 -9.06E-02
    29 Broy./Diag. 0.10E+00    7.3     0.00386646      -643.5858138918  5.08E-03
    30 Broy./Diag. 0.10E+00    6.4     0.00038652      -643.6126731857 -2.69E-02
    31 Broy./Diag. 0.10E+00    7.5     0.00091120      -643.6175158729 -4.84E-03
    32 Broy./Diag. 0.10E+00    6.4     0.00091641      -643.6262068920 -8.69E-03
    33 Broy./Diag. 0.10E+00    7.5     0.00032098      -643.6269269735 -7.20E-04
    34 Broy./Diag. 0.10E+00    6.2     0.00052709      -643.6228664271  4.06E-03
    35 Broy./Diag. 0.10E+00    7.4     0.00045372      -643.6236285689 -7.62E-04
    36 Broy./Diag. 0.10E+00    6.4     0.00042111      -643.6393168920 -1.57E-02
    37 Broy./Diag. 0.10E+00    7.1     0.00054058      -643.6514806605 -1.22E-02
    38 Broy./Diag. 0.10E+00    6.5     0.00022745      -643.6588227881 -7.34E-03
    39 Broy./Diag. 0.10E+00    7.1     0.00042629      -643.6684568771 -9.63E-03
    40 Broy./Diag. 0.10E+00    6.5     0.00032663      -643.6751104467 -6.65E-03
    41 Broy./Diag. 0.10E+00    6.9     0.00017970      -643.6762929347 -1.18E-03
    42 Broy./Diag. 0.10E+00    6.7     0.00017361      -643.6770608070 -7.68E-04
    43 Broy./Diag. 0.10E+00    6.8     0.00008068      -643.6772167838 -1.56E-04
    44 Broy./Diag. 0.10E+00    6.9     0.00019553      -643.6779126897 -6.96E-04
    45 Broy./Diag. 0.10E+00    6.7     0.00003801      -643.6794650393 -1.55E-03
    46 Broy./Diag. 0.10E+00    6.8     0.00008887      -643.6780308462  1.43E-03
    47 Broy./Diag. 0.10E+00    6.8     0.00006194      -643.6755413895  2.49E-03
    48 Broy./Diag. 0.10E+00    6.8     0.00003782      -643.6753114245  2.30E-04
    49 Broy./Diag. 0.10E+00    6.8     0.00006896      -643.6756092399 -2.98E-04
    50 Broy./Diag. 0.10E+00    6.9     0.00001541      -643.6760720328 -4.63E-04
    51 Broy./Diag. 0.10E+00    6.8     0.00003873      -643.6756860782  3.86E-04
    52 Broy./Diag. 0.10E+00    7.0     0.00002037      -643.6761237655 -4.38E-04
    53 Broy./Diag. 0.10E+00    6.8     0.00001125      -643.6760066570  1.17E-04
    54 Broy./Diag. 0.10E+00    7.4     0.00001677      -643.6763279465 -3.21E-04
    55 Broy./Diag. 0.10E+00    6.8     0.00001476      -643.6768894238 -5.61E-04
    56 Broy./Diag. 0.10E+00    7.5     0.00000809      -643.6773324977 -4.43E-04
    57 Broy./Diag. 0.10E+00    6.4     0.00000840      -643.6777223440 -3.90E-04
    58 Broy./Diag. 0.10E+00    7.5     0.00000982      -643.6778780902 -1.56E-04
    59 Broy./Diag. 0.10E+00    6.5     0.00000282      -643.6779801295 -1.02E-04
    60 Broy./Diag. 0.10E+00    7.5     0.00000359      -643.6780463027 -6.62E-05
    61 Broy./Diag. 0.10E+00    6.2     0.00000587      -643.6780025837  4.37E-05
    62 Broy./Diag. 0.10E+00    7.3     0.00000398      -643.6779199039  8.27E-05
    63 Broy./Diag. 0.10E+00    6.7     0.00000498      -643.6778630160  5.69E-05
    64 Broy./Diag. 0.10E+00    7.2     0.00000241      -643.6778518677  1.11E-05
    65 Broy./Diag. 0.10E+00    6.8     0.00000305      -643.6778407407  1.11E-05
    66 Broy./Diag. 0.10E+00    7.0     0.00000137      -643.6778013476  3.94E-05
    67 Broy./Diag. 0.10E+00    6.9     0.00000176      -643.6778229989 -2.17E-05
    68 Broy./Diag. 0.10E+00    6.8     0.00000076      -643.6778484998 -2.55E-05
    69 Broy./Diag. 0.10E+00    7.3     0.00000065      -643.6778632879 -1.48E-05
    70 Broy./Diag. 0.10E+00    6.7     0.00000065      -643.6778690382 -5.75E-06
    71 Broy./Diag. 0.10E+00    7.5     0.00000036      -643.6778676787  1.36E-06
    72 Broy./Diag. 0.10E+00    6.5     0.00000065      -643.6778704539 -2.78E-06
    73 Broy./Diag. 0.10E+00    7.5     0.00000074      -643.6778773539 -6.90E-06
    74 Broy./Diag. 0.10E+00    6.4     0.00000025      -643.6778734870  3.87E-06

  *** SCF run converged in    74 steps ***


  Electronic density on regular grids:       -463.9999999988        0.0000000012
  Core density on regular grids:              463.9999999995       -0.0000000005
  Total charge density on r-space grids:        0.0000000006
  Total charge density g-space grids:           0.0000000006

  Overlap energy of the core charge distribution:               0.00002384473555
  Self energy of the core charge distribution:              -1516.08847113961383
  Core Hamiltonian energy:                                    477.28664342166496
  Hartree energy:                                             593.21822318268812
  Exchange-correlation energy:                               -197.84432140106571
  Dispersion energy:                                           -0.24693397129903
  Electronic entropic energy:                                  -0.00303742223057
  Fermi energy:                                                -0.11235000142760

  Total energy:                                              -643.67787348700324

  outer SCF iter =    1 RMS gradient =   0.25E-06 energy =       -643.6778734870
  outer SCF loop converged in   1 iterations or   74 steps


  Integrated absolute spin density  :                               0.0000000000
  WARNING: S**2 computation does not yet treat fractional occupied orbitals

 *** WARNING in qs_loc_utils.F:1387 :: User requested the calculation of ***
 *** the localized wavefunction but the section LOCALIZE was not         ***
 *** specified. Localization will not be performed!                      ***


 -------------------------------------------------------------------------------
 -                                                                             -
 -  BSSE CALCULATION         FRAGMENT CONF: 01        FRAGMENT SUBCONF: 01     -
 -                           CHARGE =     0           MULTIPLICITY =     0     -
 -                                                                             -
 -                 ATOM INDEX                              ATOM NAME           -
 -                 ----------                              ---------           -
 -                    129                                   Na                 -
 -------------------------------------------------------------------------------

 *******************************************************************************
 *******************************************************************************
 **                                                                           **
 **     #####                         ##              ##                      **
 **    ##   ##            ##          ##              ##                      **
 **   ##     ##                       ##            ######                    **
 **   ##     ##  ##   ##  ##   #####  ##  ##   ####   ##    #####    #####    **
 **   ##     ##  ##   ##  ##  ##      ## ##   ##      ##   ##   ##  ##   ##   **
 **   ##  ## ##  ##   ##  ##  ##      ####     ###    ##   ######   ######    **
 **    ##  ###   ##   ##  ##  ##      ## ##      ##   ##   ##       ##        **
 **     #######   #####   ##   #####  ##  ##  ####    ##    #####   ##        **
 **           ##                                                    ##        **
 **                                                                           **
 **                                                ... make the atoms dance   **
 **                                                                           **
 **            Copyright (C) by CP2K developers group (2000 - 2018)           **
 **                                                                           **
 *******************************************************************************

 *** WARNING in qs_environment.F:1128 :: More added MOs requested for beta ***
 *** spin than available.                                                  ***


 *** WARNING in qs_environment.F:1142 :: More added MOs requested than ***
 *** available. The full set of unoccupied MOs will be used.           ***



 TOTAL NUMBERS AND MAXIMUM NUMBERS

  Total number of            - Atomic kinds:                                   1
                             - Atoms:                                          1
                             - Shell sets:                                     1
                             - Shells:                                         5
                             - Primitive Cartesian functions:                  7
                             - Cartesian basis functions:                      9
                             - Spherical basis functions:                      9

  Maximum angular momentum of- Orbital basis functions:                        1
                             - Local part of the GTH pseudopotential:          2
                             - Non-local part of the GTH pseudopotential:      1


 SCF PARAMETERS         Density guess:                                    ATOMIC
                        --------------------------------------------------------
                        max_scf:                                             400
                        max_scf_history:                                       0
                        max_diis:                                              4
                        --------------------------------------------------------
                        eps_scf:                                        3.00E-07
                        eps_scf_history:                                0.00E+00
                        eps_diis:                                       1.00E-01
                        eps_eigval:                                     1.00E-05
                        --------------------------------------------------------
                        level_shift [a.u.]:                                 0.00
                        added MOs                                         4    5
                        --------------------------------------------------------
                        Mixing method:                            BROYDEN_MIXING
                                                charge density mixing in g-space
                        --------------------------------------------------------
                        Smear method:                                FERMI_DIRAC
                        Electronic temperature [K]:                        300.0
                        Electronic temperature [a.u.]:                  9.50E-04
                        Accuracy threshold:                             1.00E-10
                        --------------------------------------------------------
                        Outer loop SCF in use 
                        No variables optimised in outer loop
                        eps_scf                                         1.00E-06
                        max_scf                                              100
                        DIIS optimization
                        DIIS buffer length                                     3
                        step_size                                       5.00E-01

 Spin 1

 Number of electrons:                                                          5
 Number of occupied orbitals:                                                  5
 Number of molecular orbitals:                                                 9

 Spin 2

 Number of electrons:                                                          4
 Number of occupied orbitals:                                                  4
 Number of molecular orbitals:                                                 9

 Number of orbital functions:                                                  9
 Number of independent orbital functions:                                      9

 Extrapolation method: initial_guess


 SCF WAVEFUNCTION OPTIMIZATION

  Step     Update method      Time    Convergence         Total energy    Change
  ------------------------------------------------------------------------------
     1 NoMix/Diag. 0.10E+00    2.1     0.36439765       -47.1683890720 -4.72E+01
     2 Broy./Diag. 0.10E+00    3.2     0.01267633       -47.1409497767  2.74E-02
     3 Broy./Diag. 0.10E+00    4.3     0.06965143       -47.1646170288 -2.37E-02
     4 Broy./Diag. 0.10E+00    4.6     0.00151966       -47.1485939843  1.60E-02
     5 Broy./Diag. 0.10E+00    4.5     0.00357015       -47.1592767453 -1.07E-02
     6 Broy./Diag. 0.10E+00    4.1     0.00108463       -47.1511276113  8.15E-03
     7 Broy./Diag. 0.10E+00    4.8     0.01244059       -47.1577799520 -6.65E-03
     8 Broy./Diag. 0.10E+00    5.4     0.00312812       -47.1696905459 -1.19E-02
     9 Broy./Diag. 0.10E+00    4.3     0.00347816       -47.1627226968  6.97E-03
    10 Broy./Diag. 0.10E+00    5.4     0.00374985       -47.1658343729 -3.11E-03
    11 Broy./Diag. 0.10E+00    5.6     0.00070207       -47.1675704539 -1.74E-03
    12 Broy./Diag. 0.10E+00    4.5     0.00181545       -47.1617159501  5.85E-03
    13 Broy./Diag. 0.10E+00    5.3     0.00088911       -47.1566592888  5.06E-03
    14 Broy./Diag. 0.10E+00    5.4     0.00129459       -47.1506724029  5.99E-03
    15 Broy./Diag. 0.10E+00    4.6     0.00021796       -47.1508708728 -1.98E-04
    16 Broy./Diag. 0.10E+00    5.3     0.00022140       -47.1517167962 -8.46E-04
    17 Broy./Diag. 0.10E+00    5.4     0.00030856       -47.1544608233 -2.74E-03
    18 Broy./Diag. 0.10E+00    4.7     0.00008444       -47.1543929020  6.79E-05
    19 Broy./Diag. 0.10E+00    5.3     0.00012696       -47.1509527947  3.44E-03
    20 Broy./Diag. 0.10E+00    5.4     0.00007895       -47.1524865571 -1.53E-03
    21 Broy./Diag. 0.10E+00    5.0     0.00028603       -47.1555244887 -3.04E-03
    22 Broy./Diag. 0.10E+00    5.3     0.00007971       -47.1573887023 -1.86E-03
    23 Broy./Diag. 0.10E+00    5.2     0.00015032       -47.1525761815  4.81E-03
    24 Broy./Diag. 0.10E+00    5.1     0.00004669       -47.1522547736  3.21E-04
    25 Broy./Diag. 0.10E+00    5.3     0.00026287       -47.1574452623 -5.19E-03
    26 Broy./Diag. 0.10E+00    5.2     0.00012734       -47.1586846447 -1.24E-03
    27 Broy./Diag. 0.10E+00    5.1     0.00025468       -47.1590883122 -4.04E-04
    28 Broy./Diag. 0.10E+00    5.2     0.00014605       -47.1590643041  2.40E-05
    29 Broy./Diag. 0.10E+00    5.1     0.00019557       -47.1604970419 -1.43E-03
    30 Broy./Diag. 0.10E+00    5.4     0.00026494       -47.1605199538 -2.29E-05
    31 Broy./Diag. 0.10E+00    5.2     0.00014420       -47.1597130413  8.07E-04
    32 Broy./Diag. 0.10E+00    4.9     0.00035576       -47.1598495272 -1.36E-04
    33 Broy./Diag. 0.10E+00    5.5     0.00011189       -47.1603911403 -5.42E-04
    34 Broy./Diag. 0.10E+00    5.0     0.00028599       -47.1600072784  3.84E-04
    35 Broy./Diag. 0.10E+00    5.0     0.00004329       -47.1596995450  3.08E-04
    36 Broy./Diag. 0.10E+00    5.7     0.00003129       -47.1596205506  7.90E-05
    37 Broy./Diag. 0.10E+00    4.9     0.00005317       -47.1595069536  1.14E-04
    38 Broy./Diag. 0.10E+00    4.9     0.00003159       -47.1592578786  2.49E-04
    39 Broy./Diag. 0.10E+00    5.9     0.00003582       -47.1591704240  8.75E-05
    40 Broy./Diag. 0.10E+00    4.9     0.00002937       -47.1592093128 -3.89E-05
    41 Broy./Diag. 0.10E+00    4.9     0.00001412       -47.1592950321 -8.57E-05
    42 Broy./Diag. 0.10E+00    5.9     0.00001262       -47.1592882316  6.80E-06
    43 Broy./Diag. 0.10E+00    5.1     0.00003503       -47.1592633323  2.49E-05
    44 Broy./Diag. 0.10E+00    4.7     0.00001032       -47.1591677867  9.55E-05
    45 Broy./Diag. 0.10E+00    5.9     0.00001464       -47.1592843140 -1.17E-04
    46 Broy./Diag. 0.10E+00    5.1     0.00001246       -47.1592650824  1.92E-05
    47 Broy./Diag. 0.10E+00    4.6     0.00001132       -47.1591308899  1.34E-04
    48 Broy./Diag. 0.10E+00    5.8     0.00000406       -47.1590948630  3.60E-05
    49 Broy./Diag. 0.10E+00    5.2     0.00000443       -47.1590863818  8.48E-06
    50 Broy./Diag. 0.10E+00    4.8     0.00000926       -47.1590866539 -2.72E-07
    51 Broy./Diag. 0.10E+00    5.5     0.00000641       -47.1590860412  6.13E-07
    52 Broy./Diag. 0.10E+00    5.1     0.00001234       -47.1591056012 -1.96E-05
    53 Broy./Diag. 0.10E+00    5.1     0.00002086       -47.1590994084  6.19E-06
    54 Broy./Diag. 0.10E+00    5.3     0.00001238       -47.1590997454 -3.37E-07
    55 Broy./Diag. 0.10E+00    5.1     0.00000939       -47.1591366250 -3.69E-05
    56 Broy./Diag. 0.10E+00    5.3     0.00002342       -47.1591662791 -2.97E-05
    57 Broy./Diag. 0.10E+00    5.2     0.00005374       -47.1591482379  1.80E-05
    58 Broy./Diag. 0.10E+00    5.0     0.00003309       -47.1592090532 -6.08E-05
    59 Broy./Diag. 0.10E+00    5.3     0.00000584       -47.1592305340 -2.15E-05
    60 Broy./Diag. 0.10E+00    4.9     0.00001061       -47.1592060769  2.45E-05
    61 Broy./Diag. 0.10E+00    5.1     0.00001977       -47.1591125085  9.36E-05
    62 Broy./Diag. 0.10E+00    5.6     0.00000921       -47.1590864564  2.61E-05
    63 Broy./Diag. 0.10E+00    4.9     0.00001100       -47.1591059630 -1.95E-05
    64 Broy./Diag. 0.10E+00    4.9     0.00000676       -47.1590554987  5.05E-05
    65 Broy./Diag. 0.10E+00    5.6     0.00000808       -47.1590779401 -2.24E-05
    66 Broy./Diag. 0.10E+00    4.8     0.00000329       -47.1590759364  2.00E-06
    67 Broy./Diag. 0.10E+00    4.9     0.00000428       -47.1591443608 -6.84E-05
    68 Broy./Diag. 0.10E+00    5.6     0.00000662       -47.1591604905 -1.61E-05
    69 Broy./Diag. 0.10E+00    4.8     0.00000869       -47.1591777713 -1.73E-05
    70 Broy./Diag. 0.10E+00    4.8     0.00000560       -47.1592320803 -5.43E-05
    71 Broy./Diag. 0.10E+00    5.9     0.00000222       -47.1592486126 -1.65E-05
    72 Broy./Diag. 0.10E+00    4.8     0.00000238       -47.1592607071 -1.21E-05
    73 Broy./Diag. 0.10E+00    4.8     0.00000184       -47.1592454491  1.53E-05
    74 Broy./Diag. 0.10E+00    5.2     0.00000955       -47.1590627047  1.83E-04
    75 Broy./Diag. 0.10E+00    5.1     0.00002041       -47.1589944126  6.83E-05
    76 Broy./Diag. 0.10E+00    5.3     0.00000458       -47.1590475717 -5.32E-05
    77 Broy./Diag. 0.10E+00    5.0     0.00001435       -47.1589938477  5.37E-05
    78 Broy./Diag. 0.10E+00    5.3     0.00000767       -47.1590067852 -1.29E-05
    79 Broy./Diag. 0.10E+00    5.2     0.00000556       -47.1590365731 -2.98E-05
    80 Broy./Diag. 0.10E+00    4.9     0.00001863       -47.1589889264  4.76E-05
    81 Broy./Diag. 0.10E+00    4.4     0.00000497       -47.1590388448 -4.99E-05
    82 Broy./Diag. 0.10E+00    3.9     0.00000799       -47.1590411017 -2.26E-06
    83 Broy./Diag. 0.10E+00    3.2     0.00000235       -47.1590102245  3.09E-05
    84 Broy./Diag. 0.10E+00    4.3     0.00000834       -47.1589727265  3.75E-05
    85 Broy./Diag. 0.10E+00    3.8     0.00000264       -47.1589873991 -1.47E-05
    86 Broy./Diag. 0.10E+00    3.3     0.00000293       -47.1589923585 -4.96E-06
    87 Broy./Diag. 0.10E+00    4.4     0.00000403       -47.1590136517 -2.13E-05
    88 Broy./Diag. 0.10E+00    3.6     0.00000277       -47.1589947299  1.89E-05
    89 Broy./Diag. 0.10E+00    3.5     0.00000165       -47.1589817576  1.30E-05
    90 Broy./Diag. 0.10E+00    4.3     0.00000216       -47.1589915419 -9.78E-06
    91 Broy./Diag. 0.10E+00    3.6     0.00000134       -47.1590088768 -1.73E-05
    92 Broy./Diag. 0.10E+00    3.8     0.00000290       -47.1590079460  9.31E-07
    93 Broy./Diag. 0.10E+00    4.1     0.00000284       -47.1590009997  6.95E-06
    94 Broy./Diag. 0.10E+00    3.5     0.00000454       -47.1590041916 -3.19E-06
    95 Broy./Diag. 0.10E+00    3.9     0.00000405       -47.1589976428  6.55E-06
    96 Broy./Diag. 0.10E+00    4.1     0.00000445       -47.1589913103  6.33E-06
    97 Broy./Diag. 0.10E+00    3.4     0.00000161       -47.1590080950 -1.68E-05
    98 Broy./Diag. 0.10E+00    3.9     0.00000089       -47.1590058403  2.25E-06
    99 Broy./Diag. 0.10E+00    4.1     0.00000124       -47.1589997885  6.05E-06
   100 Broy./Diag. 0.10E+00    3.4     0.00000592       -47.1589919956  7.79E-06
   101 Broy./Diag. 0.10E+00    3.9     0.00000362       -47.1589961893 -4.19E-06
   102 Broy./Diag. 0.10E+00    4.1     0.00000396       -47.1590076207 -1.14E-05
   103 Broy./Diag. 0.10E+00    3.3     0.00000085       -47.1590154437 -7.82E-06
   104 Broy./Diag. 0.10E+00    4.2     0.00000756       -47.1590148500  5.94E-07
   105 Broy./Diag. 0.10E+00    3.9     0.00000445       -47.1590281254 -1.33E-05
   106 Broy./Diag. 0.10E+00    3.3     0.00000206       -47.1590167770  1.13E-05
   107 Broy./Diag. 0.10E+00    4.4     0.00000020       -47.1590145484  2.23E-06

  *** SCF run converged in   107 steps ***


  Electronic density on regular grids:         -9.0001228395       -0.0001228395
  Core density on regular grids:                9.0000000000       -0.0000000000
  Total charge density on r-space grids:       -0.0001228395
  Total charge density g-space grids:          -0.0001228395

  Overlap energy of the core charge distribution:               0.00000000000000
  Self energy of the core charge distribution:                -96.60649019442629
  Core Hamiltonian energy:                                     29.74700434335158
  Hartree energy:                                              26.74413132376807
  Exchange-correlation energy:                                 -7.04365871501684
  Dispersion energy:                                           -0.00000130538029
  Electronic entropic energy:                                  -0.00000000066396
  Fermi energy:                                                -0.08382027939585

  Total energy:                                               -47.15901454836406

  outer SCF iter =    1 RMS gradient =   0.20E-06 energy =        -47.1590145484
  outer SCF loop converged in   1 iterations or  107 steps


  Integrated absolute spin density  :                               1.0000142605
  WARNING: S**2 computation does not yet treat fractional occupied orbitals

 *** WARNING in qs_loc_utils.F:1387 :: User requested the calculation of ***
 *** the localized wavefunction but the section LOCALIZE was not         ***
 *** specified. Localization will not be performed!                      ***


 -------------------------------------------------------------------------------
 -                                                                             -
 -  BSSE CALCULATION         FRAGMENT CONF: 11        FRAGMENT SUBCONF: 10     -
 -                           CHARGE =     0           MULTIPLICITY =     0     -
 -                                                                             -
 -                 ATOM INDEX                              ATOM NAME           -
 -                 ----------                              ---------           -
 -                      1                                   C                  -
 -                      2                                   C                  -
 -                      3                                   C                  -
 -                      4                                   C                  -
 -                      5                                   C                  -
 -                      6                                   C                  -
 -                      7                                   C                  -
 -                      8                                   C                  -
 -                      9                                   C                  -
 -                     10                                   C                  -
 -                     11                                   C                  -
 -                     12                                   C                  -
 -                     13                                   C                  -
 -                     14                                   C                  -
 -                     15                                   C                  -
 -                     16                                   C                  -
 -                     17                                   C                  -
 -                     18                                   C                  -
 -                     19                                   C                  -
 -                     20                                   C                  -
 -                     21                                   C                  -
 -                     22                                   C                  -
 -                     23                                   C                  -
 -                     24                                   C                  -
 -                     25                                   C                  -
 -                     26                                   C                  -
 -                     27                                   C                  -
 -                     28                                   C                  -
 -                     29                                   C                  -
 -                     30                                   C                  -
 -                     31                                   C                  -
 -                     32                                   C                  -
 -                     33                                   C                  -
 -                     34                                   C                  -
 -                     35                                   C                  -
 -                     36                                   C                  -
 -                     37                                   C                  -
 -                     38                                   C                  -
 -                     39                                   C                  -
 -                     40                                   C                  -
 -                     41                                   C                  -
 -                     42                                   C                  -
 -                     43                                   C                  -
 -                     44                                   C                  -
 -                     45                                   C                  -
 -                     46                                   C                  -
 -                     47                                   C                  -
 -                     48                                   C                  -
 -                     49                                   C                  -
 -                     50                                   C                  -
 -                     51                                   C                  -
 -                     52                                   C                  -
 -                     53                                   C                  -
 -                     54                                   C                  -
 -                     55                                   C                  -
 -                     56                                   C                  -
 -                     57                                   C                  -
 -                     58                                   C                  -
 -                     59                                   C                  -
 -                     60                                   C                  -
 -                     61                                   C                  -
 -                     62                                   C                  -
 -                     63                                   C                  -
 -                     64                                   C                  -
 -                     65                                   C                  -
 -                     66                                   C                  -
 -                     67                                   C                  -
 -                     68                                   C                  -
 -                     69                                   C                  -
 -                     70                                   C                  -
 -                     71                                   C                  -
 -                     72                                   C                  -
 -                     73                                   C                  -
 -                     74                                   C                  -
 -                     75                                   C                  -
 -                     76                                   C                  -
 -                     77                                   C                  -
 -                     78                                   C                  -
 -                     79                                   C                  -
 -                     80                                   C                  -
 -                     81                                   C                  -
 -                     82                                   C                  -
 -                     83                                   C                  -
 -                     84                                   C                  -
 -                     85                                   C                  -
 -                     86                                   C                  -
 -                     87                                   C                  -
 -                     88                                   C                  -
 -                     89                                   C                  -
 -                     90                                   C                  -
 -                     91                                   C                  -
 -                     92                                   C                  -
 -                     93                                   C                  -
 -                     94                                   C                  -
 -                     95                                   C                  -
 -                     96                                   C                  -
 -                     97                                   C                  -
 -                     98                                   C                  -
 -                     99                                   C                  -
 -                    100                                   C                  -
 -                    101                                   C                  -
 -                    102                                   C                  -
 -                    103                                   C                  -
 -                    104                                   C                  -
 -                    105                                   C                  -
 -                    106                                   C                  -
 -                    107                                   C                  -
 -                    108                                   C                  -
 -                    109                                   C                  -
 -                    110                                   C                  -
 -                    111                                   C                  -
 -                    112                                   C                  -
 -                    113                                   H                  -
 -                    114                                   H                  -
 -                    115                                   H                  -
 -                    116                                   H                  -
 -                    117                                   H                  -
 -                    118                                   H                  -
 -                    119                                   H                  -
 -                    120                                   H                  -
 -                    121                                   H                  -
 -                    122                                   H                  -
 -                    123                                   H                  -
 -                    124                                   H                  -
 -                    125                                   H                  -
 -                    126                                   H                  -
 -                    127                                   H                  -
 -                    128                                   H                  -
 -                    129                                   Na_ghost           -
 -------------------------------------------------------------------------------

 *******************************************************************************
 *******************************************************************************
 **                                                                           **
 **     #####                         ##              ##                      **
 **    ##   ##            ##          ##              ##                      **
 **   ##     ##                       ##            ######                    **
 **   ##     ##  ##   ##  ##   #####  ##  ##   ####   ##    #####    #####    **
 **   ##     ##  ##   ##  ##  ##      ## ##   ##      ##   ##   ##  ##   ##   **
 **   ##  ## ##  ##   ##  ##  ##      ####     ###    ##   ######   ######    **
 **    ##  ###   ##   ##  ##  ##      ## ##      ##   ##   ##       ##        **
 **     #######   #####   ##   #####  ##  ##  ####    ##    #####   ##        **
 **           ##                                                    ##        **
 **                                                                           **
 **                                                ... make the atoms dance   **
 **                                                                           **
 **            Copyright (C) by CP2K developers group (2000 - 2018)           **
 **                                                                           **
 *******************************************************************************


 TOTAL NUMBERS AND MAXIMUM NUMBERS

  Total number of            - Atomic kinds:                                   3
                             - Atoms:                                        129
                             - Shell sets:                                   129
                             - Shells:                                       613
                             - Primitive Cartesian functions:                647
                             - Cartesian basis functions:                   1657
                             - Spherical basis functions:                   1545

  Maximum angular momentum of- Orbital basis functions:                        2
                             - Local part of the GTH pseudopotential:          2
                             - Non-local part of the GTH pseudopotential:      0


 SCF PARAMETERS         Density guess:                                    ATOMIC
                        --------------------------------------------------------
                        max_scf:                                             400
                        max_scf_history:                                       0
                        max_diis:                                              4
                        --------------------------------------------------------
                        eps_scf:                                        3.00E-07
                        eps_scf_history:                                0.00E+00
                        eps_diis:                                       1.00E-01
                        eps_eigval:                                     1.00E-05
                        --------------------------------------------------------
                        level_shift [a.u.]:                                 0.00
                        added MOs                                       100  100
                        --------------------------------------------------------
                        Mixing method:                            BROYDEN_MIXING
                                                charge density mixing in g-space
                        --------------------------------------------------------
                        Smear method:                                FERMI_DIRAC
                        Electronic temperature [K]:                        300.0
                        Electronic temperature [a.u.]:                  9.50E-04
                        Accuracy threshold:                             1.00E-10
                        --------------------------------------------------------
                        Outer loop SCF in use 
                        No variables optimised in outer loop
                        eps_scf                                         1.00E-06
                        max_scf                                              100
                        DIIS optimization
                        DIIS buffer length                                     3
                        step_size                                       5.00E-01

 Spin 1

 Number of electrons:                                                        232
 Number of occupied orbitals:                                                232
 Number of molecular orbitals:                                               332

 Spin 2

 Number of electrons:                                                        232
 Number of occupied orbitals:                                                232
 Number of molecular orbitals:                                               332

 Number of orbital functions:                                               1545
 Number of independent orbital functions:                                   1545

 Extrapolation method: initial_guess


 SCF WAVEFUNCTION OPTIMIZATION

  Step     Update method      Time    Convergence         Total energy    Change
  ------------------------------------------------------------------------------
     1 NoMix/Diag. 0.10E+00    2.3     0.45118899      -636.4164223400 -6.36E+02
     2 Broy./Diag. 0.10E+00    5.1     0.04872029      -609.9980644389  2.64E+01
     3 Broy./Diag. 0.10E+00    4.4     0.14129038      -624.0992477516 -1.41E+01
     4 Broy./Diag. 0.10E+00    5.2     7.62202059      -637.3984968248 -1.33E+01
     5 Broy./Diag. 0.10E+00    4.5     7.62197248      -616.9399262246  2.05E+01
     6 Broy./Diag. 0.10E+00    5.3     7.54136150      -641.0939965413 -2.42E+01
     7 Broy./Diag. 0.10E+00    4.9     7.54135785      -618.4434002740  2.27E+01
     8 Broy./Diag. 0.10E+00    5.3     7.68262838      -641.5231001652 -2.31E+01
     9 Broy./Diag. 0.10E+00    5.2     7.68262991      -595.0002357930  4.65E+01
    10 Broy./Diag. 0.10E+00    5.4     7.57698144      -641.6570398919 -4.67E+01
    11 Broy./Diag. 0.10E+00    5.8     7.57697905      -589.6954288502  5.20E+01
    12 Broy./Diag. 0.10E+00    5.1     7.61565602      -641.8258692954 -5.21E+01
    13 Broy./Diag. 0.10E+00    5.9     7.61565376      -574.8449699702  6.70E+01
    14 Broy./Diag. 0.10E+00    4.9     7.60292355      -641.7317634705 -6.69E+01
    15 Broy./Diag. 0.10E+00    5.7     7.60292002      -597.5020772082  4.42E+01
    16 Broy./Diag. 0.10E+00    5.3     7.59476571      -641.9466246008 -4.44E+01
    17 Broy./Diag. 0.10E+00    5.4     7.59945674      -597.6755097138  4.43E+01
    18 Broy./Diag. 0.10E+00    5.8     7.71404951      -642.1001244751 -4.44E+01
    19 Broy./Diag. 0.10E+00    5.0     7.71404837      -574.2682256437  6.78E+01
    20 Broy./Diag. 0.10E+00    6.0     0.00300662      -642.1874792362 -6.79E+01
    21 Broy./Diag. 0.10E+00    5.0     0.02379066      -642.2604650888 -7.30E-02
    22 Broy./Diag. 0.10E+00    5.5     0.00512114      -642.8497623714 -5.89E-01
    23 Broy./Diag. 0.10E+00    5.5     0.01815559      -642.9628620129 -1.13E-01
    24 Broy./Diag. 0.10E+00    5.3     0.00317912      -643.1882273320 -2.25E-01
    25 Broy./Diag. 0.10E+00    5.9     0.00259512      -643.2796837595 -9.15E-02
    26 Broy./Diag. 0.10E+00    4.9     0.00189271      -643.4573765839 -1.78E-01
    27 Broy./Diag. 0.10E+00    5.8     0.00288297      -643.5008804691 -4.35E-02
    28 Broy./Diag. 0.10E+00    5.3     0.00120328      -643.5907801922 -8.99E-02
    29 Broy./Diag. 0.10E+00    5.5     0.00392909      -643.5878148097  2.97E-03
    30 Broy./Diag. 0.10E+00    5.5     0.00063798      -643.6106106096 -2.28E-02
    31 Broy./Diag. 0.10E+00    5.1     0.00064900      -643.6211604449 -1.05E-02
    32 Broy./Diag. 0.10E+00    6.0     0.00111736      -643.6255030097 -4.34E-03
    33 Broy./Diag. 0.10E+00    5.0     0.00041895      -643.6265796733 -1.08E-03
    34 Broy./Diag. 0.10E+00    5.9     0.00056212      -643.6267881305 -2.08E-04
    35 Broy./Diag. 0.10E+00    5.2     0.00036129      -643.6371902823 -1.04E-02
    36 Broy./Diag. 0.10E+00    5.6     0.00018921      -643.6523109173 -1.51E-02
    37 Broy./Diag. 0.10E+00    5.7     0.00039883      -643.6590858150 -6.77E-03
    38 Broy./Diag. 0.10E+00    5.1     0.00013147      -643.6603567199 -1.27E-03
    39 Broy./Diag. 0.10E+00    5.9     0.00029708      -643.6644438258 -4.09E-03
    40 Broy./Diag. 0.10E+00    5.0     0.00008868      -643.6687713224 -4.33E-03
    41 Broy./Diag. 0.10E+00    5.7     0.00019492      -643.6730080575 -4.24E-03
    42 Broy./Diag. 0.10E+00    5.5     0.00005792      -643.6773293014 -4.32E-03
    43 Broy./Diag. 0.10E+00    5.3     0.00017817      -643.6767623176  5.67E-04
    44 Broy./Diag. 0.10E+00    5.9     0.00003019      -643.6777908298 -1.03E-03
    45 Broy./Diag. 0.10E+00    4.9     0.00009283      -643.6773876878  4.03E-04
    46 Broy./Diag. 0.10E+00    5.8     0.00005037      -643.6777084542 -3.21E-04
    47 Broy./Diag. 0.10E+00    5.3     0.00004587      -643.6763631410  1.35E-03
    48 Broy./Diag. 0.10E+00    5.6     0.00003078      -643.6759023022  4.61E-04
    49 Broy./Diag. 0.10E+00    5.6     0.00001679      -643.6762485531 -3.46E-04
    50 Broy./Diag. 0.10E+00    5.1     0.00003555      -643.6766147953 -3.66E-04
    51 Broy./Diag. 0.10E+00    5.8     0.00000900      -643.6771642414 -5.49E-04
    52 Broy./Diag. 0.10E+00    5.1     0.00002094      -643.6773233573 -1.59E-04
    53 Broy./Diag. 0.10E+00    5.8     0.00001291      -643.6776666822 -3.43E-04
    54 Broy./Diag. 0.10E+00    5.1     0.00001541      -643.6779016423 -2.35E-04
    55 Broy./Diag. 0.10E+00    5.6     0.00000887      -643.6781497120 -2.48E-04
    56 Broy./Diag. 0.10E+00    5.7     0.00000383      -643.6781242274  2.55E-05
    57 Broy./Diag. 0.10E+00    5.0     0.00000597      -643.6780980913  2.61E-05
    58 Broy./Diag. 0.10E+00    5.9     0.00000472      -643.6782691819 -1.71E-04
    59 Broy./Diag. 0.10E+00    4.9     0.00000267      -643.6784443695 -1.75E-04
    60 Broy./Diag. 0.10E+00    5.7     0.00000416      -643.6784863763 -4.20E-05
    61 Broy./Diag. 0.10E+00    5.5     0.00000179      -643.6785139761 -2.76E-05
    62 Broy./Diag. 0.10E+00    5.3     0.00000182      -643.6785442646 -3.03E-05
    63 Broy./Diag. 0.10E+00    5.9     0.00000268      -643.6785560310 -1.18E-05
    64 Broy./Diag. 0.10E+00    4.9     0.00000175      -643.6785620430 -6.01E-06
    65 Broy./Diag. 0.10E+00    5.9     0.00000130      -643.6785648882 -2.85E-06
    66 Broy./Diag. 0.10E+00    5.3     0.00000128      -643.6785575434  7.34E-06
    67 Broy./Diag. 0.10E+00    5.6     0.00000091      -643.6785354785  2.21E-05
    68 Broy./Diag. 0.10E+00    5.7     0.00000060      -643.6785214875  1.40E-05
    69 Broy./Diag. 0.10E+00    5.2     0.00000076      -643.6785240543 -2.57E-06
    70 Broy./Diag. 0.10E+00    5.9     0.00000094      -643.6785259975 -1.94E-06
    71 Broy./Diag. 0.10E+00    5.0     0.00000061      -643.6785211311  4.87E-06
    72 Broy./Diag. 0.10E+00    5.7     0.00000038      -643.6785198326  1.30E-06
    73 Broy./Diag. 0.10E+00    5.2     0.00000063      -643.6785200103 -1.78E-07
    74 Broy./Diag. 0.10E+00    5.4     0.00000083      -643.6785212937 -1.28E-06
    75 Broy./Diag. 0.10E+00    5.7     0.00000027      -643.6785235410 -2.25E-06

  *** SCF run converged in    75 steps ***


  Electronic density on regular grids:       -463.9999999986        0.0000000014
  Core density on regular grids:              463.9999999995       -0.0000000005
  Total charge density on r-space grids:        0.0000000009
  Total charge density g-space grids:           0.0000000009

  Overlap energy of the core charge distribution:               0.00002384473555
  Self energy of the core charge distribution:              -1516.08847113961383
  Core Hamiltonian energy:                                    477.28172688261441
  Hartree energy:                                             593.22145766012522
  Exchange-correlation energy:                               -197.84328870965263
  Dispersion energy:                                           -0.24693397129903
  Electronic entropic energy:                                  -0.00303810547510
  Fermi energy:                                                -0.11238388281481

  Total energy:                                              -643.67852354099603

  outer SCF iter =    1 RMS gradient =   0.27E-06 energy =       -643.6785235410
  outer SCF loop converged in   1 iterations or   75 steps


  Integrated absolute spin density  :                               0.0000000000
  WARNING: S**2 computation does not yet treat fractional occupied orbitals

 *** WARNING in qs_loc_utils.F:1387 :: User requested the calculation of ***
 *** the localized wavefunction but the section LOCALIZE was not         ***
 *** specified. Localization will not be performed!                      ***


 -------------------------------------------------------------------------------
 -                                                                             -
 -  BSSE CALCULATION         FRAGMENT CONF: 11        FRAGMENT SUBCONF: 01     -
 -                           CHARGE =     0           MULTIPLICITY =     0     -
 -                                                                             -
 -                 ATOM INDEX                              ATOM NAME           -
 -                 ----------                              ---------           -
 -                      1                                   C_ghost            -
 -                      2                                   C_ghost            -
 -                      3                                   C_ghost            -
 -                      4                                   C_ghost            -
 -                      5                                   C_ghost            -
 -                      6                                   C_ghost            -
 -                      7                                   C_ghost            -
 -                      8                                   C_ghost            -
 -                      9                                   C_ghost            -
 -                     10                                   C_ghost            -
 -                     11                                   C_ghost            -
 -                     12                                   C_ghost            -
 -                     13                                   C_ghost            -
 -                     14                                   C_ghost            -
 -                     15                                   C_ghost            -
 -                     16                                   C_ghost            -
 -                     17                                   C_ghost            -
 -                     18                                   C_ghost            -
 -                     19                                   C_ghost            -
 -                     20                                   C_ghost            -
 -                     21                                   C_ghost            -
 -                     22                                   C_ghost            -
 -                     23                                   C_ghost            -
 -                     24                                   C_ghost            -
 -                     25                                   C_ghost            -
 -                     26                                   C_ghost            -
 -                     27                                   C_ghost            -
 -                     28                                   C_ghost            -
 -                     29                                   C_ghost            -
 -                     30                                   C_ghost            -
 -                     31                                   C_ghost            -
 -                     32                                   C_ghost            -
 -                     33                                   C_ghost            -
 -                     34                                   C_ghost            -
 -                     35                                   C_ghost            -
 -                     36                                   C_ghost            -
 -                     37                                   C_ghost            -
 -                     38                                   C_ghost            -
 -                     39                                   C_ghost            -
 -                     40                                   C_ghost            -
 -                     41                                   C_ghost            -
 -                     42                                   C_ghost            -
 -                     43                                   C_ghost            -
 -                     44                                   C_ghost            -
 -                     45                                   C_ghost            -
 -                     46                                   C_ghost            -
 -                     47                                   C_ghost            -
 -                     48                                   C_ghost            -
 -                     49                                   C_ghost            -
 -                     50                                   C_ghost            -
 -                     51                                   C_ghost            -
 -                     52                                   C_ghost            -
 -                     53                                   C_ghost            -
 -                     54                                   C_ghost            -
 -                     55                                   C_ghost            -
 -                     56                                   C_ghost            -
 -                     57                                   C_ghost            -
 -                     58                                   C_ghost            -
 -                     59                                   C_ghost            -
 -                     60                                   C_ghost            -
 -                     61                                   C_ghost            -
 -                     62                                   C_ghost            -
 -                     63                                   C_ghost            -
 -                     64                                   C_ghost            -
 -                     65                                   C_ghost            -
 -                     66                                   C_ghost            -
 -                     67                                   C_ghost            -
[...]
   214 Broy./Diag. 0.10E+00    5.8     0.00008118      -690.8666423762  3.09E-05
   215 Broy./Diag. 0.10E+00    5.3     0.00007095      -690.8666597249 -1.73E-05
   216 Broy./Diag. 0.10E+00    6.0     0.00027092      -690.8666547429  4.98E-06
   217 Broy./Diag. 0.10E+00    5.2     0.00001558      -690.8666244366  3.03E-05
   218 Broy./Diag. 0.10E+00    5.6     0.00006187      -690.8666288358 -4.40E-06
   219 Broy./Diag. 0.10E+00    5.5     0.00032650      -690.8666108694  1.80E-05
   220 Broy./Diag. 0.10E+00    5.3     0.00001362      -690.8665768966  3.40E-05
   221 Broy./Diag. 0.10E+00    5.9     0.00030260      -690.8665905618 -1.37E-05
   222 Broy./Diag. 0.10E+00    5.2     0.00008095      -690.8666314531 -4.09E-05
   223 Broy./Diag. 0.10E+00    5.8     0.00014488      -690.8666375220 -6.07E-06
   224 Broy./Diag. 0.10E+00    5.6     0.00007642      -690.8666276126  9.91E-06
   225 Broy./Diag. 0.10E+00    5.5     0.00012976      -690.8666193191  8.29E-06
   226 Broy./Diag. 0.10E+00    6.0     0.00048952      -690.8666198963 -5.77E-07
   227 Broy./Diag. 0.10E+00    5.0     0.00003982      -690.8666693304 -4.94E-05
   228 Broy./Diag. 0.10E+00    5.9     0.00028559      -690.8666753477 -6.02E-06
   229 Broy./Diag. 0.10E+00    5.6     0.00011002      -690.8666526092  2.27E-05
   230 Broy./Diag. 0.10E+00    5.9     0.00000887      -690.8666654319 -1.28E-05
   231 Broy./Diag. 0.10E+00    5.9     0.00003181      -690.8666656186 -1.87E-07
   232 Broy./Diag. 0.10E+00    5.1     0.00003752      -690.8666741579 -8.54E-06
   233 Broy./Diag. 0.10E+00    5.9     0.00011421      -690.8666553270  1.88E-05
   234 Broy./Diag. 0.10E+00    5.3     0.00018737      -690.8666517977  3.53E-06
   235 Broy./Diag. 0.10E+00    5.6     0.00009036      -690.8666425591  9.24E-06
   236 Broy./Diag. 0.10E+00    5.7     0.00016309      -690.8666355177  7.04E-06
   237 Broy./Diag. 0.10E+00    5.2     0.00004969      -690.8666643656 -2.88E-05
   238 Broy./Diag. 0.10E+00    5.9     0.00010070      -690.8666463213  1.80E-05
   239 Broy./Diag. 0.10E+00    5.1     0.00004851      -690.8666706512 -2.43E-05
   240 Broy./Diag. 0.10E+00    5.7     0.00003465      -690.8666731672 -2.52E-06
   241 Broy./Diag. 0.10E+00    5.6     0.00002781      -690.8666847468 -1.16E-05
   242 Broy./Diag. 0.10E+00    5.3     0.00033925      -690.8666837097  1.04E-06
   243 Broy./Diag. 0.10E+00    5.9     0.00002605      -690.8666646479  1.91E-05
   244 Broy./Diag. 0.10E+00    5.0     0.00015114      -690.8666766865 -1.20E-05
   245 Broy./Diag. 0.10E+00    5.8     0.00008199      -690.8666584681  1.82E-05
   246 Broy./Diag. 0.10E+00    5.2     0.00002434      -690.8666572154  1.25E-06
   247 Broy./Diag. 0.10E+00    6.2     0.00009481      -690.8666606099 -3.39E-06
   248 Broy./Diag. 0.10E+00    6.4     0.00013932      -690.8666902771 -2.97E-05
   249 Broy./Diag. 0.10E+00    5.2     0.00009730      -690.8667007569 -1.05E-05
   250 Broy./Diag. 0.10E+00    5.8     0.00010975      -690.8666729582  2.78E-05
   251 Broy./Diag. 0.10E+00    5.4     0.00002452      -690.8666444529  2.85E-05
   252 Broy./Diag. 0.10E+00    5.6     0.00004862      -690.8666492589 -4.81E-06
   253 Broy./Diag. 0.10E+00    5.9     0.00001496      -690.8666330379  1.62E-05
   254 Broy./Diag. 0.10E+00    5.0     0.00016656      -690.8666377084 -4.67E-06
   255 Broy./Diag. 0.10E+00    5.9     0.00011023      -690.8666662711 -2.86E-05
   256 Broy./Diag. 0.10E+00    5.3     0.00000809      -690.8666673792 -1.11E-06
   257 Broy./Diag. 0.10E+00    5.7     0.00001743      -690.8666679370 -5.58E-07
   258 Broy./Diag. 0.10E+00    5.7     0.00001755      -690.8666609074  7.03E-06
   259 Broy./Diag. 0.10E+00    5.2     0.00001182      -690.8666707799 -9.87E-06
   260 Broy./Diag. 0.10E+00    5.9     0.00001092      -690.8666697751  1.00E-06
   261 Broy./Diag. 0.10E+00    5.0     0.00000674      -690.8666715547 -1.78E-06
   262 Broy./Diag. 0.10E+00    5.7     0.00015629      -690.8666650128  6.54E-06
   263 Broy./Diag. 0.10E+00    5.6     0.00003922      -690.8666493400  1.57E-05
   264 Broy./Diag. 0.10E+00    5.5     0.00005326      -690.8666267527  2.26E-05
   265 Broy./Diag. 0.10E+00    5.9     0.00001459      -690.8666153174  1.14E-05
   266 Broy./Diag. 0.10E+00    5.0     0.00001497      -690.8666199502 -4.63E-06
   267 Broy./Diag. 0.10E+00    6.0     0.00001185      -690.8666116105  8.34E-06
   268 Broy./Diag. 0.10E+00    5.2     0.00005399      -690.8666054599  6.15E-06
   269 Broy./Diag. 0.10E+00    5.6     0.00005067      -690.8666137616 -8.30E-06
   270 Broy./Diag. 0.10E+00    5.8     0.00013621      -690.8666224775 -8.72E-06
   271 Broy./Diag. 0.10E+00    5.2     0.00007913      -690.8666368921 -1.44E-05
   272 Broy./Diag. 0.10E+00    5.9     0.00001966      -690.8666510874 -1.42E-05
   273 Broy./Diag. 0.10E+00    5.0     0.00001066      -690.8666379589  1.31E-05
   274 Broy./Diag. 0.10E+00    5.7     0.00004417      -690.8666331111  4.85E-06
   275 Broy./Diag. 0.10E+00    5.6     0.00004239      -690.8666334337 -3.23E-07
   276 Broy./Diag. 0.10E+00    5.4     0.00001881      -690.8666416567 -8.22E-06
   277 Broy./Diag. 0.10E+00    6.0     0.00000611      -690.8666241163  1.75E-05
   278 Broy./Diag. 0.10E+00    5.3     0.00004158      -690.8666157694  8.35E-06
   279 Broy./Diag. 0.10E+00    5.9     0.00004996      -690.8666231921 -7.42E-06
   280 Broy./Diag. 0.10E+00    5.6     0.00007580      -690.8666178175  5.37E-06
   281 Broy./Diag. 0.10E+00    5.3     0.00002118      -690.8666001637  1.77E-05
   282 Broy./Diag. 0.10E+00    5.9     0.00002467      -690.8665986948  1.47E-06
   283 Broy./Diag. 0.10E+00    5.0     0.00011985      -690.8666039181 -5.22E-06
   284 Broy./Diag. 0.10E+00    6.0     0.00003235      -690.8665980049  5.91E-06
   285 Broy./Diag. 0.10E+00    5.3     0.00003439      -690.8666117463 -1.37E-05
   286 Broy./Diag. 0.10E+00    5.5     0.00001715      -690.8665895246  2.22E-05
   287 Broy./Diag. 0.10E+00    5.8     0.00009352      -690.8666046682 -1.51E-05
   288 Broy./Diag. 0.10E+00    5.1     0.00014212      -690.8665815286  2.31E-05
   289 Broy./Diag. 0.10E+00    6.0     0.00003701      -690.8666121300 -3.06E-05
   290 Broy./Diag. 0.10E+00    5.1     0.00006121      -690.8666098777  2.25E-06
   291 Broy./Diag. 0.10E+00    5.5     0.00002167      -690.8666042240  5.65E-06
   292 Broy./Diag. 0.10E+00    5.6     0.00002684      -690.8666104156 -6.19E-06
   293 Broy./Diag. 0.10E+00    5.2     0.00032676      -690.8665927286  1.77E-05
   294 Broy./Diag. 0.10E+00    6.0     0.00002180      -690.8665796175  1.31E-05
   295 Broy./Diag. 0.10E+00    5.0     0.00007012      -690.8665803241 -7.07E-07
   296 Broy./Diag. 0.10E+00    5.8     0.00005711      -690.8665866618 -6.34E-06
   297 Broy./Diag. 0.10E+00    5.2     0.00003843      -690.8665706016  1.61E-05
   298 Broy./Diag. 0.10E+00    5.7     0.00006370      -690.8665862492 -1.56E-05
   299 Broy./Diag. 0.10E+00    5.8     0.00003478      -690.8665678144  1.84E-05
   300 Broy./Diag. 0.10E+00    5.1     0.00005635      -690.8665946742 -2.69E-05
   301 Broy./Diag. 0.10E+00    6.0     0.00009227      -690.8665714270  2.32E-05
   302 Broy./Diag. 0.10E+00    5.2     0.00001306      -690.8665862078 -1.48E-05
   303 Broy./Diag. 0.10E+00    5.5     0.00025337      -690.8665727032  1.35E-05
   304 Broy./Diag. 0.10E+00    5.5     0.00005184      -690.8666040731 -3.14E-05
   305 Broy./Diag. 0.10E+00    5.2     0.00007515      -690.8665933976  1.07E-05
   306 Broy./Diag. 0.10E+00    6.0     0.00014900      -690.8665785025  1.49E-05
   307 Broy./Diag. 0.10E+00    5.1     0.00010553      -690.8665986810 -2.02E-05
   308 Broy./Diag. 0.10E+00    5.9     0.00039240      -690.8666093574 -1.07E-05
   309 Broy./Diag. 0.10E+00    5.2     0.00021946      -690.8666366695 -2.73E-05
   310 Broy./Diag. 0.10E+00    5.6     0.00038308      -690.8665880268  4.86E-05
   311 Broy./Diag. 0.10E+00    5.8     0.00002001      -690.8665446880  4.33E-05
   312 Broy./Diag. 0.10E+00    5.1     0.00011436      -690.8665360946  8.59E-06
   313 Broy./Diag. 0.10E+00    6.0     0.00006115      -690.8665368417 -7.47E-07
   314 Broy./Diag. 0.10E+00    5.1     0.00012829      -690.8665248645  1.20E-05
   315 Broy./Diag. 0.10E+00    5.6     0.00001652      -690.8665285059 -3.64E-06
   316 Broy./Diag. 0.10E+00    5.5     0.00008491      -690.8665192321  9.27E-06
   317 Broy./Diag. 0.10E+00    5.3     0.00003667      -690.8665349365 -1.57E-05
   318 Broy./Diag. 0.10E+00    6.0     0.00021186      -690.8665223468  1.26E-05
   319 Broy./Diag. 0.10E+00    5.0     0.00007249      -690.8665517861 -2.94E-05
   320 Broy./Diag. 0.10E+00    5.9     0.00003143      -690.8665546111 -2.82E-06
   321 Broy./Diag. 0.10E+00    5.1     0.00005244      -690.8665797449 -2.51E-05
   322 Broy./Diag. 0.10E+00    5.6     0.00001674      -690.8665776446  2.10E-06
   323 Broy./Diag. 0.10E+00    5.8     0.00002145      -690.8665886345 -1.10E-05
   324 Broy./Diag. 0.10E+00    5.1     0.00021140      -690.8665810567  7.58E-06
   325 Broy./Diag. 0.10E+00    5.9     0.00031041      -690.8665735280  7.53E-06
   326 Broy./Diag. 0.10E+00    5.1     0.00020088      -690.8665429055  3.06E-05
   327 Broy./Diag. 0.10E+00    5.6     0.00013645      -690.8665068453  3.61E-05
   328 Broy./Diag. 0.10E+00    5.6     0.00002275      -690.8665217138 -1.49E-05
   329 Broy./Diag. 0.10E+00    5.3     0.00016481      -690.8665281631 -6.45E-06
   330 Broy./Diag. 0.10E+00    5.9     0.00009704      -690.8665217436  6.42E-06
   331 Broy./Diag. 0.10E+00    5.1     0.00009735      -690.8665182219  3.52E-06
   332 Broy./Diag. 0.10E+00    5.9     0.00030646      -690.8665390246 -2.08E-05
   333 Broy./Diag. 0.10E+00    5.2     0.00001101      -690.8665555861 -1.66E-05
   334 Broy./Diag. 0.10E+00    5.7     0.00006882      -690.8665695623 -1.40E-05
   335 Broy./Diag. 0.10E+00    5.8     0.00016202      -690.8665634742  6.09E-06
   336 Broy./Diag. 0.10E+00    5.1     0.00015518      -690.8665489601  1.45E-05
   337 Broy./Diag. 0.10E+00    6.0     0.00004585      -690.8665768460 -2.79E-05
   338 Broy./Diag. 0.10E+00    5.2     0.00021840      -690.8665732571  3.59E-06
   339 Broy./Diag. 0.10E+00    5.5     0.00005150      -690.8665502076  2.30E-05
   340 Broy./Diag. 0.10E+00    5.5     0.00000943      -690.8665583383 -8.13E-06
   341 Broy./Diag. 0.10E+00    5.2     0.00001778      -690.8665593213 -9.83E-07
   342 Broy./Diag. 0.10E+00    5.9     0.00004188      -690.8665539263  5.40E-06
   343 Broy./Diag. 0.10E+00    5.2     0.00005149      -690.8665585857 -4.66E-06
   344 Broy./Diag. 0.10E+00    5.8     0.00001980      -690.8665510296  7.56E-06
   345 Broy./Diag. 0.10E+00    5.3     0.00002895      -690.8665476876  3.34E-06
   346 Broy./Diag. 0.10E+00    5.5     0.00014167      -690.8665552991 -7.61E-06
   347 Broy./Diag. 0.10E+00    5.5     0.00005846      -690.8665620977 -6.80E-06
   348 Broy./Diag. 0.10E+00    5.9     0.00009060      -690.8665569213  5.18E-06
   349 Broy./Diag. 0.10E+00    5.1     0.00001641      -690.8665540682  2.85E-06
   350 Broy./Diag. 0.10E+00    5.7     0.00001609      -690.8665554923 -1.42E-06
   351 Broy./Diag. 0.10E+00    5.6     0.00004150      -690.8665610061 -5.51E-06
   352 Broy./Diag. 0.10E+00    5.6     0.00005517      -690.8665701080 -9.10E-06
   353 Broy./Diag. 0.10E+00    5.9     0.00001962      -690.8665573535  1.28E-05
   354 Broy./Diag. 0.10E+00    5.2     0.00002279      -690.8665602374 -2.88E-06
   355 Broy./Diag. 0.10E+00    5.9     0.00001941      -690.8665530542  7.18E-06
   356 Broy./Diag. 0.10E+00    5.4     0.00001496      -690.8665693040 -1.62E-05
   357 Broy./Diag. 0.10E+00    5.5     0.00005564      -690.8665618059  7.50E-06
   358 Broy./Diag. 0.10E+00    5.9     0.00002518      -690.8665754213 -1.36E-05
   359 Broy./Diag. 0.10E+00    5.4     0.00003821      -690.8665777934 -2.37E-06
   360 Broy./Diag. 0.10E+00    5.8     0.00011914      -690.8665751431  2.65E-06
   361 Broy./Diag. 0.10E+00    5.3     0.00001385      -690.8665871144 -1.20E-05
   362 Broy./Diag. 0.10E+00    5.4     0.00002344      -690.8665820841  5.03E-06
   363 Broy./Diag. 0.10E+00    5.8     0.00003190      -690.8665786167  3.47E-06
   364 Broy./Diag. 0.10E+00    5.1     0.00001105      -690.8665909454 -1.23E-05
   365 Broy./Diag. 0.10E+00    6.5     0.00003729      -690.8665809162  1.00E-05
   366 Broy./Diag. 0.10E+00    5.8     0.00001247      -690.8665845457 -3.63E-06
   367 Broy./Diag. 0.10E+00    5.6     0.00006585      -690.8665817177  2.83E-06
   368 Broy./Diag. 0.10E+00    5.8     0.00000989      -690.8666038936 -2.22E-05
   369 Broy./Diag. 0.10E+00    5.1     0.00002021      -690.8665991530  4.74E-06
   370 Broy./Diag. 0.10E+00    6.0     0.00006539      -690.8665999402 -7.87E-07
   371 Broy./Diag. 0.10E+00    5.2     0.00000912      -690.8665808248  1.91E-05
   372 Broy./Diag. 0.10E+00    5.5     0.00002475      -690.8665807030  1.22E-07
   373 Broy./Diag. 0.10E+00    5.5     0.00002121      -690.8665976953 -1.70E-05
   374 Broy./Diag. 0.10E+00    5.2     0.00004563      -690.8665880210  9.67E-06
   375 Broy./Diag. 0.10E+00    6.0     0.00000885      -690.8665923208 -4.30E-06
   376 Broy./Diag. 0.10E+00    5.8     0.00001750      -690.8665814630  1.09E-05
   377 Broy./Diag. 0.10E+00    5.7     0.00013825      -690.8665906466 -9.18E-06
   378 Broy./Diag. 0.10E+00    5.6     0.00010049      -690.8665682091  2.24E-05
   379 Broy./Diag. 0.10E+00    5.4     0.00014290      -690.8665760950 -7.89E-06
   380 Broy./Diag. 0.10E+00    5.9     0.00008903      -690.8665913962 -1.53E-05
   381 Broy./Diag. 0.10E+00    5.3     0.00005109      -690.8666085433 -1.71E-05
   382 Broy./Diag. 0.10E+00    5.8     0.00001497      -690.8666054671  3.08E-06
   383 Broy./Diag. 0.10E+00    5.3     0.00003480      -690.8666229806 -1.75E-05
   384 Broy./Diag. 0.10E+00    5.5     0.00000966      -690.8666063671  1.66E-05
   385 Broy./Diag. 0.10E+00    5.8     0.00008348      -690.8666098105 -3.44E-06
   386 Broy./Diag. 0.10E+00    5.1     0.00002359      -690.8666146373 -4.83E-06
   387 Broy./Diag. 0.10E+00    6.0     0.00010589      -690.8666076852  6.95E-06
   388 Broy./Diag. 0.10E+00    5.1     0.00004094      -690.8665933918  1.43E-05
   389 Broy./Diag. 0.10E+00    5.7     0.00007523      -690.8666028917 -9.50E-06
   390 Broy./Diag. 0.10E+00    5.5     0.00006032      -690.8666010051  1.89E-06
   391 Broy./Diag. 0.10E+00    5.3     0.00006526      -690.8666109308 -9.93E-06
   392 Broy./Diag. 0.10E+00    6.0     0.00007538      -690.8666025268  8.40E-06
   393 Broy./Diag. 0.10E+00    5.0     0.00008966      -690.8666133175 -1.08E-05
   394 Broy./Diag. 0.10E+00    5.9     0.00003582      -690.8666012171  1.21E-05
   395 Broy./Diag. 0.10E+00    5.2     0.00001476      -690.8665952256  5.99E-06
   396 Broy./Diag. 0.10E+00    5.6     0.00002407      -690.8665981240 -2.90E-06
   397 Broy./Diag. 0.10E+00    5.8     0.00026236      -690.8666005924 -2.47E-06
   398 Broy./Diag. 0.10E+00    5.3     0.00015737      -690.8666170347 -1.64E-05
   399 Broy./Diag. 0.10E+00    6.0     0.00014585      -690.8666071584  9.88E-06
   400 Broy./Diag. 0.10E+00    5.2     0.00007553      -690.8666173254 -1.02E-05

  Leaving inner SCF loop after reaching   400 steps.


  Electronic density on regular grids:       -473.0001233542       -0.0001233542
  Core density on regular grids:              472.9999999995       -0.0000000005
  Total charge density on r-space grids:       -0.0001233547
  Total charge density g-space grids:          -0.0001233547

  Overlap energy of the core charge distribution:               0.00002384473555
  Self energy of the core charge distribution:              -1612.69496133404004
  Core Hamiltonian energy:                                    507.27173536285494
  Hartree energy:                                             619.85682889153020
  Exchange-correlation energy:                               -205.04226074082158
  Dispersion energy:                                           -0.25538658748617
  Electronic entropic energy:                                  -0.00259677739327
  Fermi energy:                                                -0.10112672534497

  Total energy:                                              -690.86661732536891

  outer SCF iter =    3 RMS gradient =   0.76E-04 energy =       -690.8666173254
     1 Broy./Diag. 0.10E+00    9.7     0.00056255      -690.8665735278  4.38E-05
     2 Broy./Diag. 0.10E+00    5.3     0.00032693      -690.8664225090  1.51E-04
     3 Broy./Diag. 0.10E+00    5.5     0.00033812      -690.8667992577 -3.77E-04
     4 Broy./Diag. 0.10E+00    5.8     0.00011300      -690.8668469358 -4.77E-05
     5 Broy./Diag. 0.10E+00    5.1     0.00012356      -690.8668500102 -3.07E-06
     6 Broy./Diag. 0.10E+00    6.0     0.00006486      -690.8668736248 -2.36E-05
     7 Broy./Diag. 0.10E+00    5.1     0.00012108      -690.8668640234  9.60E-06
     8 Broy./Diag. 0.10E+00    5.6     0.00001572      -690.8668593622  4.66E-06
     9 Broy./Diag. 0.10E+00    5.6     0.00005418      -690.8668729321 -1.36E-05
    10 Broy./Diag. 0.10E+00    5.3     0.00026577      -690.8668770763 -4.14E-06
    11 Broy./Diag. 0.10E+00    5.9     0.00178845      -690.8668609410  1.61E-05
    12 Broy./Diag. 0.10E+00    5.1     0.00011099      -690.8666841199  1.77E-04
    13 Broy./Diag. 0.10E+00    5.9     0.00006072      -690.8666972660 -1.31E-05
    14 Broy./Diag. 0.10E+00    5.1     0.00006848      -690.8667470135 -4.97E-05
    15 Broy./Diag. 0.10E+00    5.6     0.00055453      -690.8667825165 -3.55E-05
    16 Broy./Diag. 0.10E+00    5.8     0.00045480      -690.8668619713 -7.95E-05
    17 Broy./Diag. 0.10E+00    5.2     0.00013118      -690.8669222311 -6.03E-05
    18 Broy./Diag. 0.10E+00    6.0     0.00025557      -690.8669217371  4.94E-07
    19 Broy./Diag. 0.10E+00    5.1     0.00015598      -690.8669037079  1.80E-05
    20 Broy./Diag. 0.10E+00    5.6     0.00007214      -690.8669184943 -1.48E-05
    21 Broy./Diag. 0.10E+00    5.6     0.00001369      -690.8669226979 -4.20E-06
    22 Broy./Diag. 0.10E+00    5.3     0.00001140      -690.8669214857  1.21E-06
    23 Broy./Diag. 0.10E+00    6.0     0.00001342      -690.8669277800 -6.29E-06
    24 Broy./Diag. 0.10E+00    5.0     0.00002042      -690.8669369761 -9.20E-06
    25 Broy./Diag. 0.10E+00    5.9     0.00036570      -690.8669221167  1.49E-05
    26 Broy./Diag. 0.10E+00    5.2     0.00004800      -690.8668845252  3.76E-05
    27 Broy./Diag. 0.10E+00    5.6     0.00010585      -690.8668929967 -8.47E-06
    28 Broy./Diag. 0.10E+00    5.8     0.00002741      -690.8668881023  4.89E-06
    29 Broy./Diag. 0.10E+00    5.2     0.00001961      -690.8669010109 -1.29E-05
    30 Broy./Diag. 0.10E+00    5.9     0.00005016      -690.8668899385  1.11E-05
    31 Broy./Diag. 0.10E+00    5.0     0.00011514      -690.8669029124 -1.30E-05
    32 Broy./Diag. 0.10E+00    5.7     0.00020285      -690.8669081932 -5.28E-06
    33 Broy./Diag. 0.10E+00    5.6     0.00046068      -690.8669078426  3.51E-07
    34 Broy./Diag. 0.10E+00    5.4     0.00003663      -690.8669216756 -1.38E-05
    35 Broy./Diag. 0.10E+00    5.9     0.00003884      -690.8669310385 -9.36E-06
    36 Broy./Diag. 0.10E+00    5.0     0.00059315      -690.8669227654  8.27E-06
    37 Broy./Diag. 0.10E+00    5.8     0.00032441      -690.8669332787 -1.05E-05
    38 Broy./Diag. 0.10E+00    5.3     0.00006773      -690.8669390429 -5.76E-06
    39 Broy./Diag. 0.10E+00    5.6     0.00003130      -690.8669265208  1.25E-05
    40 Broy./Diag. 0.10E+00    5.8     0.00005727      -690.8669378411 -1.13E-05
    41 Broy./Diag. 0.10E+00    5.1     0.00001237      -690.8669248596  1.30E-05
    42 Broy./Diag. 0.10E+00    6.0     0.00077721      -690.8669180009  6.86E-06
-------------------------------------------------------
Primary job  terminated normally, but 1 process returned
a non-zero exit code. Per user-direction, the job has been aborted.
-------------------------------------------------------
