 DBCSR| Multiplication driver                                               XSMM
 DBCSR| Multrec recursion limit                                              512
 DBCSR| Multiplication stack size                                           1000
 DBCSR| Maximum elements for images                                    UNLIMITED
 DBCSR| Multiplicative factor virtual images                                   1
 DBCSR| Multiplication size stacks                                             3
 DBCSR| Number of 3D layers                                               SINGLE
 DBCSR| Use MPI memory allocation                                              T
 DBCSR| Use RMA algorithm                                                      F
 DBCSR| Use Communication thread                                               T
 DBCSR| Communication thread load                                             87


  **** **** ******  **  PROGRAM STARTED AT               2024-07-24 14:44:58.586
 ***** ** ***  *** **   PROGRAM STARTED ON                            sebnode130
 **    ****   ******    PROGRAM STARTED BY                                luehrs
 ***** **    ** ** **   PROGRAM PROCESS ID                                291107
  **** **  *******  **  PROGRAM STARTED IN /home/luehrs/PhD/Sodium_batteries/Sod
                                           ium-graphene-edge/Zig_zag_3/Hydrogen

 CP2K| version string:                    CP2K version 7.0 (Development Version)
 CP2K| source code revision number:                                             
 CP2K| cp2kflags: libint fftw3 libxc parallel mpi3 scalapack xsmm libderiv_max_a
 CP2K|            m1=8 libint_max_am=9 max_contr=4
 CP2K| is freely available from                            https://www.cp2k.org/
 CP2K| Program compiled at                         Sun Jun 24 14:37:16 CEST 2018
 CP2K| Program compiled on                                            sebstorage
 CP2K| Program compiled for                                Linux-x86-64-gfortran
 CP2K| Data directory path    /home/brehm/Software_Batchnode/2018/Source/cp2k_18
 CP2K| Input file name                         graphene_zig_zag_BSSE-1_2.restart

 GLOBAL| Force Environment number                                              1
 GLOBAL| Basis set file name                                      ./BASIS_MOLOPT
 GLOBAL| Potential file name                                    ./GTH_POTENTIALS
 GLOBAL| MM Potential file name                                     MM_POTENTIAL
 GLOBAL| Coordinate file name              graphene_hydrogen_zig-zag_relaxed.xyz
 GLOBAL| Method name                                                        CP2K
 GLOBAL| Project name                                      graphene_zig_zag_BSSE
 GLOBAL| Preferred FFT library                                             FFTW3
 GLOBAL| Preferred diagonalization lib.                                       SL
 GLOBAL| Run type                                                           BSSE
 GLOBAL| All-to-all communication in single precision                          F
 GLOBAL| FFTs using library dependent lengths                                  F
 GLOBAL| Global print level                                                  LOW
 GLOBAL| Total number of message passing processes                            16
 GLOBAL| Number of threads for this process                                    1
 GLOBAL| This output is from process                                           0
 GLOBAL| CPU model name :  AMD EPYC 7513 32-Core Processor

 MEMORY| system memory details [Kb]
 MEMORY|                        rank 0           min           max       average
 MEMORY| MemTotal            131901912     131901912     131901912     131901912
 MEMORY| MemFree              59630644      59630644      59630644      59630644
 MEMORY| Buffers                113704        113704        113704        113704
 MEMORY| Cached                3163376       3163376       3163380       3163376
 MEMORY| Slab                  1011192       1011192       1011192       1011192
 MEMORY| SReclaimable           216968        216968        216968        216968
 MEMORY| MemLikelyFree        63124692      63124692      63124696      63124692


 GENERATE|  Preliminary Number of Bonds generated:                             0
 GENERATE|  Achieved consistency in connectivity generation.

 *******************************************************************************
 *******************************************************************************
 **                                                                           **
 **     #####                         ##              ##                      **
 **    ##   ##            ##          ##              ##                      **
 **   ##     ##                       ##            ######                    **
 **   ##     ##  ##   ##  ##   #####  ##  ##   ####   ##    #####    #####    **
 **   ##     ##  ##   ##  ##  ##      ## ##   ##      ##   ##   ##  ##   ##   **
 **   ##  ## ##  ##   ##  ##  ##      ####     ###    ##   ######   ######    **
 **    ##  ###   ##   ##  ##  ##      ## ##      ##   ##   ##       ##        **
 **     #######   #####   ##   #####  ##  ##  ####    ##    #####   ##        **
 **           ##                                                    ##        **
 **                                                                           **
 **                                                ... make the atoms dance   **
 **                                                                           **
 **            Copyright (C) by CP2K developers group (2000 - 2018)           **
 **                                                                           **
 *******************************************************************************


 TOTAL NUMBERS AND MAXIMUM NUMBERS

  Total number of            - Atomic kinds:                                   3
                             - Atoms:                                        129
                             - Shell sets:                                   129
                             - Shells:                                       613
                             - Primitive Cartesian functions:                647
                             - Cartesian basis functions:                   1657
                             - Spherical basis functions:                   1545

  Maximum angular momentum of- Orbital basis functions:                        2
                             - Local part of the GTH pseudopotential:          2
                             - Non-local part of the GTH pseudopotential:      1


 SCF PARAMETERS         Density guess:                                    ATOMIC
                        --------------------------------------------------------
                        max_scf:                                             400
                        max_scf_history:                                       0
                        max_diis:                                              4
                        --------------------------------------------------------
                        eps_scf:                                        3.00E-07
                        eps_scf_history:                                0.00E+00
                        eps_diis:                                       1.00E-01
                        eps_eigval:                                     1.00E-05
                        --------------------------------------------------------
                        level_shift [a.u.]:                                 0.00
                        added MOs                                       100  100
                        --------------------------------------------------------
                        Mixing method:                            BROYDEN_MIXING
                                                charge density mixing in g-space
                        --------------------------------------------------------
                        Smear method:                                FERMI_DIRAC
                        Electronic temperature [K]:                        300.0
                        Electronic temperature [a.u.]:                  9.50E-04
                        Accuracy threshold:                             1.00E-10
                        --------------------------------------------------------
                        Outer loop SCF in use 
                        No variables optimised in outer loop
                        eps_scf                                         1.00E-06
                        max_scf                                              100
                        DIIS optimization
                        DIIS buffer length                                     3
                        step_size                                       5.00E-01

 -------------------------------------------------------------------------------
 -                                                                             -
 -  BSSE CALCULATION         FRAGMENT CONF: 11        FRAGMENT SUBCONF: 10     -
 -                           CHARGE =     0           MULTIPLICITY =     0     -
 -                                                                             -
 -                 ATOM INDEX                              ATOM NAME           -
 -                 ----------                              ---------           -
 -                      1                                   C                  -
 -                      2                                   C                  -
 -                      3                                   C                  -
 -                      4                                   C                  -
 -                      5                                   C                  -
 -                      6                                   C                  -
 -                      7                                   C                  -
 -                      8                                   C                  -
 -                      9                                   C                  -
 -                     10                                   C                  -
 -                     11                                   C                  -
 -                     12                                   C                  -
 -                     13                                   C                  -
 -                     14                                   C                  -
 -                     15                                   C                  -
 -                     16                                   C                  -
 -                     17                                   C                  -
 -                     18                                   C                  -
 -                     19                                   C                  -
 -                     20                                   C                  -
 -                     21                                   C                  -
 -                     22                                   C                  -
 -                     23                                   C                  -
 -                     24                                   C                  -
 -                     25                                   C                  -
 -                     26                                   C                  -
 -                     27                                   C                  -
 -                     28                                   C                  -
 -                     29                                   C                  -
 -                     30                                   C                  -
 -                     31                                   C                  -
 -                     32                                   C                  -
 -                     33                                   C                  -
 -                     34                                   C                  -
 -                     35                                   C                  -
 -                     36                                   C                  -
 -                     37                                   C                  -
 -                     38                                   C                  -
 -                     39                                   C                  -
 -                     40                                   C                  -
 -                     41                                   C                  -
 -                     42                                   C                  -
 -                     43                                   C                  -
 -                     44                                   C                  -
 -                     45                                   C                  -
 -                     46                                   C                  -
 -                     47                                   C                  -
 -                     48                                   C                  -
 -                     49                                   C                  -
 -                     50                                   C                  -
 -                     51                                   C                  -
 -                     52                                   C                  -
 -                     53                                   C                  -
 -                     54                                   C                  -
 -                     55                                   C                  -
 -                     56                                   C                  -
 -                     57                                   C                  -
 -                     58                                   C                  -
 -                     59                                   C                  -
 -                     60                                   C                  -
 -                     61                                   C                  -
 -                     62                                   C                  -
 -                     63                                   C                  -
 -                     64                                   C                  -
 -                     65                                   C                  -
 -                     66                                   C                  -
 -                     67                                   C                  -
 -                     68                                   C                  -
 -                     69                                   C                  -
 -                     70                                   C                  -
 -                     71                                   C                  -
 -                     72                                   C                  -
 -                     73                                   C                  -
 -                     74                                   C                  -
 -                     75                                   C                  -
 -                     76                                   C                  -
 -                     77                                   C                  -
 -                     78                                   C                  -
 -                     79                                   C                  -
 -                     80                                   C                  -
 -                     81                                   C                  -
 -                     82                                   C                  -
 -                     83                                   C                  -
 -                     84                                   C                  -
 -                     85                                   C                  -
 -                     86                                   C                  -
 -                     87                                   C                  -
 -                     88                                   C                  -
 -                     89                                   C                  -
 -                     90                                   C                  -
 -                     91                                   C                  -
 -                     92                                   C                  -
 -                     93                                   C                  -
 -                     94                                   C                  -
 -                     95                                   C                  -
 -                     96                                   C                  -
 -                     97                                   C                  -
 -                     98                                   C                  -
 -                     99                                   C                  -
 -                    100                                   C                  -
 -                    101                                   C                  -
 -                    102                                   C                  -
 -                    103                                   C                  -
 -                    104                                   C                  -
 -                    105                                   C                  -
 -                    106                                   C                  -
 -                    107                                   C                  -
 -                    108                                   C                  -
 -                    109                                   C                  -
 -                    110                                   C                  -
 -                    111                                   C                  -
 -                    112                                   C                  -
 -                    113                                   H                  -
 -                    114                                   H                  -
 -                    115                                   H                  -
 -                    116                                   H                  -
 -                    117                                   H                  -
 -                    118                                   H                  -
 -                    119                                   H                  -
 -                    120                                   H                  -
 -                    121                                   H                  -
 -                    122                                   H                  -
 -                    123                                   H                  -
 -                    124                                   H                  -
 -                    125                                   H                  -
 -                    126                                   H                  -
 -                    127                                   H                  -
 -                    128                                   H                  -
 -                    129                                   Na_ghost           -
 -------------------------------------------------------------------------------

 *******************************************************************************
 *******************************************************************************
 **                                                                           **
 **     #####                         ##              ##                      **
 **    ##   ##            ##          ##              ##                      **
 **   ##     ##                       ##            ######                    **
 **   ##     ##  ##   ##  ##   #####  ##  ##   ####   ##    #####    #####    **
 **   ##     ##  ##   ##  ##  ##      ## ##   ##      ##   ##   ##  ##   ##   **
 **   ##  ## ##  ##   ##  ##  ##      ####     ###    ##   ######   ######    **
 **    ##  ###   ##   ##  ##  ##      ## ##      ##   ##   ##       ##        **
 **     #######   #####   ##   #####  ##  ##  ####    ##    #####   ##        **
 **           ##                                                    ##        **
 **                                                                           **
 **                                                ... make the atoms dance   **
 **                                                                           **
 **            Copyright (C) by CP2K developers group (2000 - 2018)           **
 **                                                                           **
 *******************************************************************************


 TOTAL NUMBERS AND MAXIMUM NUMBERS

  Total number of            - Atomic kinds:                                   3
                             - Atoms:                                        129
                             - Shell sets:                                   129
                             - Shells:                                       613
                             - Primitive Cartesian functions:                647
                             - Cartesian basis functions:                   1657
                             - Spherical basis functions:                   1545

  Maximum angular momentum of- Orbital basis functions:                        2
                             - Local part of the GTH pseudopotential:          2
                             - Non-local part of the GTH pseudopotential:      0


 SCF PARAMETERS         Density guess:                                    ATOMIC
                        --------------------------------------------------------
                        max_scf:                                             400
                        max_scf_history:                                       0
                        max_diis:                                              4
                        --------------------------------------------------------
                        eps_scf:                                        3.00E-07
                        eps_scf_history:                                0.00E+00
                        eps_diis:                                       1.00E-01
                        eps_eigval:                                     1.00E-05
                        --------------------------------------------------------
                        level_shift [a.u.]:                                 0.00
                        added MOs                                       100  100
                        --------------------------------------------------------
                        Mixing method:                            BROYDEN_MIXING
                                                charge density mixing in g-space
                        --------------------------------------------------------
                        Smear method:                                FERMI_DIRAC
                        Electronic temperature [K]:                        300.0
                        Electronic temperature [a.u.]:                  9.50E-04
                        Accuracy threshold:                             1.00E-10
                        --------------------------------------------------------
                        Outer loop SCF in use 
                        No variables optimised in outer loop
                        eps_scf                                         1.00E-06
                        max_scf                                              100
                        DIIS optimization
                        DIIS buffer length                                     3
                        step_size                                       5.00E-01

 Spin 1

 Number of electrons:                                                        232
 Number of occupied orbitals:                                                232
 Number of molecular orbitals:                                               332

 Spin 2

 Number of electrons:                                                        232
 Number of occupied orbitals:                                                232
 Number of molecular orbitals:                                               332

 Number of orbital functions:                                               1545
 Number of independent orbital functions:                                   1545

 Extrapolation method: initial_guess


 SCF WAVEFUNCTION OPTIMIZATION

  Step     Update method      Time    Convergence         Total energy    Change
  ------------------------------------------------------------------------------
     1 NoMix/Diag. 0.10E+00    2.9     0.45118899      -636.4164223400 -6.36E+02
     2 Broy./Diag. 0.10E+00    6.2     0.04872029      -609.9980644389  2.64E+01
     3 Broy./Diag. 0.10E+00    5.7     0.14129038      -624.0992477516 -1.41E+01
     4 Broy./Diag. 0.10E+00    6.8     7.62202059      -637.3984968248 -1.33E+01
     5 Broy./Diag. 0.10E+00    5.4     7.62197248      -616.9399262246  2.05E+01
     6 Broy./Diag. 0.10E+00    7.0     7.54136150      -641.0939965413 -2.42E+01
     7 Broy./Diag. 0.10E+00    5.6     7.54135785      -618.4434002740  2.27E+01
     8 Broy./Diag. 0.10E+00    7.2     7.68262838      -641.5231001652 -2.31E+01
     9 Broy./Diag. 0.10E+00    6.3     7.68262991      -595.0002357930  4.65E+01
    10 Broy./Diag. 0.10E+00    7.0     7.57698144      -641.6570398919 -4.67E+01
    11 Broy./Diag. 0.10E+00    7.6     7.57697905      -589.6954288500  5.20E+01
    12 Broy./Diag. 0.10E+00    5.8     7.61565602      -641.8258692954 -5.21E+01
    13 Broy./Diag. 0.10E+00    7.6     7.61565376      -574.8449699700  6.70E+01
    14 Broy./Diag. 0.10E+00    6.5     7.60292355      -641.7317634705 -6.69E+01
    15 Broy./Diag. 0.10E+00    6.9     7.60292002      -597.5020772083  4.42E+01
    16 Broy./Diag. 0.10E+00    7.3     7.59476571      -641.9466246008 -4.44E+01
    17 Broy./Diag. 0.10E+00    6.1     7.59945674      -597.6755097140  4.43E+01
    18 Broy./Diag. 0.10E+00    7.7     7.71404951      -642.1001244751 -4.44E+01
    19 Broy./Diag. 0.10E+00    6.2     7.71404837      -574.2682256437  6.78E+01
    20 Broy./Diag. 0.10E+00    7.1     0.00300662      -642.1874792362 -6.79E+01
    21 Broy./Diag. 0.10E+00    7.2     0.02379066      -642.2604650888 -7.30E-02
    22 Broy./Diag. 0.10E+00    6.1     0.00512114      -642.8497623714 -5.89E-01
    23 Broy./Diag. 0.10E+00    7.7     0.01815559      -642.9628620129 -1.13E-01
    24 Broy./Diag. 0.10E+00    6.2     0.00317912      -643.1882273320 -2.25E-01
    25 Broy./Diag. 0.10E+00    7.0     0.00259512      -643.2796837595 -9.15E-02
    26 Broy./Diag. 0.10E+00    7.0     0.00189271      -643.4573765839 -1.78E-01
    27 Broy./Diag. 0.10E+00    6.3     0.00288297      -643.5008804691 -4.35E-02
    28 Broy./Diag. 0.10E+00    7.6     0.00120328      -643.5907801923 -8.99E-02
    29 Broy./Diag. 0.10E+00    6.0     0.00392909      -643.5878148100  2.97E-03
    30 Broy./Diag. 0.10E+00    7.3     0.00063798      -643.6106106086 -2.28E-02
    31 Broy./Diag. 0.10E+00    6.8     0.00064900      -643.6211604452 -1.05E-02
    32 Broy./Diag. 0.10E+00    6.6     0.00111736      -643.6255030152 -4.34E-03
    33 Broy./Diag. 0.10E+00    7.6     0.00041895      -643.6265796706 -1.08E-03
    34 Broy./Diag. 0.10E+00    5.9     0.00056212      -643.6267881183 -2.08E-04
    35 Broy./Diag. 0.10E+00    7.5     0.00036131      -643.6371901949 -1.04E-02
    36 Broy./Diag. 0.10E+00    6.4     0.00018928      -643.6523109264 -1.51E-02
    37 Broy./Diag. 0.10E+00    7.0     0.00039846      -643.6590860726 -6.78E-03
    38 Broy./Diag. 0.10E+00    7.4     0.00012922      -643.6603475782 -1.26E-03
    39 Broy./Diag. 0.10E+00    5.9     0.00028652      -643.6644447377 -4.10E-03
    40 Broy./Diag. 0.10E+00    7.8     0.00009251      -643.6688092599 -4.36E-03
    41 Broy./Diag. 0.10E+00    6.4     0.00019603      -643.6730511066 -4.24E-03
    42 Broy./Diag. 0.10E+00    6.9     0.00005623      -643.6774202935 -4.37E-03
    43 Broy./Diag. 0.10E+00    7.4     0.00018873      -643.6767629263  6.57E-04
    44 Broy./Diag. 0.10E+00    6.0     0.00002954      -643.6779254777 -1.16E-03
    45 Broy./Diag. 0.10E+00    7.7     0.00007981      -643.6772743233  6.51E-04
    46 Broy./Diag. 0.10E+00    6.3     0.00003933      -643.6770839916  1.90E-04
    47 Broy./Diag. 0.10E+00    7.1     0.00003448      -643.6754183085  1.67E-03
    48 Broy./Diag. 0.10E+00    7.2     0.00003561      -643.6748219741  5.96E-04
    49 Broy./Diag. 0.10E+00    6.2     0.00002214      -643.6753049108 -4.83E-04
    50 Broy./Diag. 0.10E+00    7.7     0.00002762      -643.6758169499 -5.12E-04
    51 Broy./Diag. 0.10E+00    6.3     0.00002397      -643.6766350969 -8.18E-04
    52 Broy./Diag. 0.10E+00    7.0     0.00001332      -643.6772208449 -5.86E-04
    53 Broy./Diag. 0.10E+00    6.9     0.00001901      -643.6776970749 -4.76E-04
    54 Broy./Diag. 0.10E+00    6.4     0.00001168      -643.6779582693 -2.61E-04
    55 Broy./Diag. 0.10E+00    7.6     0.00000894      -643.6780541449 -9.59E-05
    56 Broy./Diag. 0.10E+00    5.9     0.00000513      -643.6782201535 -1.66E-04
    57 Broy./Diag. 0.10E+00    7.3     0.00001031      -643.6785952816 -3.75E-04
    58 Broy./Diag. 0.10E+00    6.9     0.00000311      -643.6788776858 -2.82E-04
    59 Broy./Diag. 0.10E+00    6.6     0.00000506      -643.6788192223  5.85E-05
    60 Broy./Diag. 0.10E+00    7.6     0.00000445      -643.6788001599  1.91E-05
    61 Broy./Diag. 0.10E+00    5.8     0.00000495      -643.6788147891 -1.46E-05
    62 Broy./Diag. 0.10E+00    7.6     0.00000305      -643.6787600440  5.47E-05
    63 Broy./Diag. 0.10E+00    6.5     0.00000214      -643.6786836570  7.64E-05
    64 Broy./Diag. 0.10E+00    7.0     0.00000172      -643.6785987450  8.49E-05
    65 Broy./Diag. 0.10E+00    7.6     0.00000239      -643.6785266479  7.21E-05
    66 Broy./Diag. 0.10E+00    5.8     0.00000122      -643.6785120082  1.46E-05
    67 Broy./Diag. 0.10E+00    7.6     0.00000195      -643.6785245406 -1.25E-05
    68 Broy./Diag. 0.10E+00    5.9     0.00000069      -643.6785527049 -2.82E-05
    69 Broy./Diag. 0.10E+00    6.7     0.00000081      -643.6785597962 -7.09E-06
    70 Broy./Diag. 0.10E+00    6.7     0.00000090      -643.6785442419  1.56E-05
    71 Broy./Diag. 0.10E+00    7.6     0.00000074      -643.6785247474  1.95E-05
    72 Broy./Diag. 0.10E+00    5.8     0.00000060      -643.6785151723  9.58E-06
    73 Broy./Diag. 0.10E+00    7.7     0.00000059      -643.6785044495  1.07E-05
    74 Broy./Diag. 0.10E+00    6.5     0.00000068      -643.6784877148  1.67E-05
    75 Broy./Diag. 0.10E+00    6.9     0.00000025      -643.6784775454  1.02E-05

  *** SCF run converged in    75 steps ***


  Electronic density on regular grids:       -463.9999999986        0.0000000014
  Core density on regular grids:              463.9999999995       -0.0000000005
  Total charge density on r-space grids:        0.0000000009
  Total charge density g-space grids:           0.0000000009

  Overlap energy of the core charge distribution:               0.00002384473555
  Self energy of the core charge distribution:              -1516.08847113961383
  Core Hamiltonian energy:                                    477.28175942673352
  Hartree energy:                                             593.22145615768886
  Exchange-correlation energy:                               -197.84327375290280
  Dispersion energy:                                           -0.24693397129903
  Electronic entropic energy:                                  -0.00303810920944
  Fermi energy:                                                -0.11238456935428

  Total energy:                                              -643.67847754540730

  outer SCF iter =    1 RMS gradient =   0.25E-06 energy =       -643.6784775454
  outer SCF loop converged in   1 iterations or   75 steps


  Integrated absolute spin density  :                               0.0000000000
  WARNING: S**2 computation does not yet treat fractional occupied orbitals

 *** WARNING in qs_loc_utils.F:1387 :: User requested the calculation of ***
 *** the localized wavefunction but the section LOCALIZE was not         ***
 *** specified. Localization will not be performed!                      ***


 -------------------------------------------------------------------------------
 -                                                                             -
 -  BSSE CALCULATION         FRAGMENT CONF: 11        FRAGMENT SUBCONF: 01     -
 -                           CHARGE =     0           MULTIPLICITY =     0     -
 -                                                                             -
 -                 ATOM INDEX                              ATOM NAME           -
 -                 ----------                              ---------           -
 -                      1                                   C_ghost            -
 -                      2                                   C_ghost            -
 -                      3                                   C_ghost            -
 -                      4                                   C_ghost            -
 -                      5                                   C_ghost            -
 -                      6                                   C_ghost            -
 -                      7                                   C_ghost            -
 -                      8                                   C_ghost            -
 -                      9                                   C_ghost            -
 -                     10                                   C_ghost            -
 -                     11                                   C_ghost            -
 -                     12                                   C_ghost            -
 -                     13                                   C_ghost            -
 -                     14                                   C_ghost            -
 -                     15                                   C_ghost            -
 -                     16                                   C_ghost            -
 -                     17                                   C_ghost            -
 -                     18                                   C_ghost            -
 -                     19                                   C_ghost            -
 -                     20                                   C_ghost            -
 -                     21                                   C_ghost            -
 -                     22                                   C_ghost            -
 -                     23                                   C_ghost            -
 -                     24                                   C_ghost            -
 -                     25                                   C_ghost            -
 -                     26                                   C_ghost            -
 -                     27                                   C_ghost            -
 -                     28                                   C_ghost            -
 -                     29                                   C_ghost            -
 -                     30                                   C_ghost            -
 -                     31                                   C_ghost            -
 -                     32                                   C_ghost            -
 -                     33                                   C_ghost            -
 -                     34                                   C_ghost            -
 -                     35                                   C_ghost            -
 -                     36                                   C_ghost            -
 -                     37                                   C_ghost            -
 -                     38                                   C_ghost            -
 -                     39                                   C_ghost            -
 -                     40                                   C_ghost            -
 -                     41                                   C_ghost            -
 -                     42                                   C_ghost            -
 -                     43                                   C_ghost            -
 -                     44                                   C_ghost            -
 -                     45                                   C_ghost            -
 -                     46                                   C_ghost            -
 -                     47                                   C_ghost            -
 -                     48                                   C_ghost            -
 -                     49                                   C_ghost            -
 -                     50                                   C_ghost            -
 -                     51                                   C_ghost            -
 -                     52                                   C_ghost            -
 -                     53                                   C_ghost            -
 -                     54                                   C_ghost            -
 -                     55                                   C_ghost            -
 -                     56                                   C_ghost            -
 -                     57                                   C_ghost            -
 -                     58                                   C_ghost            -
 -                     59                                   C_ghost            -
 -                     60                                   C_ghost            -
 -                     61                                   C_ghost            -
 -                     62                                   C_ghost            -
 -                     63                                   C_ghost            -
 -                     64                                   C_ghost            -
 -                     65                                   C_ghost            -
 -                     66                                   C_ghost            -
 -                     67                                   C_ghost            -
 -                     68                                   C_ghost            -
 -                     69                                   C_ghost            -
 -                     70                                   C_ghost            -
 -                     71                                   C_ghost            -
 -                     72                                   C_ghost            -
 -                     73                                   C_ghost            -
 -                     74                                   C_ghost            -
 -                     75                                   C_ghost            -
 -                     76                                   C_ghost            -
 -                     77                                   C_ghost            -
 -                     78                                   C_ghost            -
 -                     79                                   C_ghost            -
 -                     80                                   C_ghost            -
 -                     81                                   C_ghost            -
 -                     82                                   C_ghost            -
 -                     83                                   C_ghost            -
 -                     84                                   C_ghost            -
 -                     85                                   C_ghost            -
 -                     86                                   C_ghost            -
 -                     87                                   C_ghost            -
 -                     88                                   C_ghost            -
 -                     89                                   C_ghost            -
 -                     90                                   C_ghost            -
 -                     91                                   C_ghost            -
 -                     92                                   C_ghost            -
 -                     93                                   C_ghost            -
 -                     94                                   C_ghost            -
 -                     95                                   C_ghost            -
 -                     96                                   C_ghost            -
 -                     97                                   C_ghost            -
 -                     98                                   C_ghost            -
 -                     99                                   C_ghost            -
 -                    100                                   C_ghost            -
 -                    101                                   C_ghost            -
 -                    102                                   C_ghost            -
 -                    103                                   C_ghost            -
 -                    104                                   C_ghost            -
 -                    105                                   C_ghost            -
 -                    106                                   C_ghost            -
 -                    107                                   C_ghost            -
 -                    108                                   C_ghost            -
 -                    109                                   C_ghost            -
 -                    110                                   C_ghost            -
 -                    111                                   C_ghost            -
 -                    112                                   C_ghost            -
 -                    113                                   H_ghost            -
 -                    114                                   H_ghost            -
 -                    115                                   H_ghost            -
 -                    116                                   H_ghost            -
 -                    117                                   H_ghost            -
 -                    118                                   H_ghost            -
 -                    119                                   H_ghost            -
 -                    120                                   H_ghost            -
 -                    121                                   H_ghost            -
 -                    122                                   H_ghost            -
 -                    123                                   H_ghost            -
 -                    124                                   H_ghost            -
 -                    125                                   H_ghost            -
 -                    126                                   H_ghost            -
 -                    127                                   H_ghost            -
 -                    128                                   H_ghost            -
 -                    129                                   Na                 -
 -------------------------------------------------------------------------------

 *******************************************************************************
 *******************************************************************************
 **                                                                           **
 **     #####                         ##              ##                      **
 **    ##   ##            ##          ##              ##                      **
 **   ##     ##                       ##            ######                    **
 **   ##     ##  ##   ##  ##   #####  ##  ##   ####   ##    #####    #####    **
 **   ##     ##  ##   ##  ##  ##      ## ##   ##      ##   ##   ##  ##   ##   **
 **   ##  ## ##  ##   ##  ##  ##      ####     ###    ##   ######   ######    **
 **    ##  ###   ##   ##  ##  ##      ## ##      ##   ##   ##       ##        **
 **     #######   #####   ##   #####  ##  ##  ####    ##    #####   ##        **
 **           ##                                                    ##        **
 **                                                                           **
 **                                                ... make the atoms dance   **
 **                                                                           **
 **            Copyright (C) by CP2K developers group (2000 - 2018)           **
 **                                                                           **
 *******************************************************************************


 TOTAL NUMBERS AND MAXIMUM NUMBERS

  Total number of            - Atomic kinds:                                   3
                             - Atoms:                                        129
                             - Shell sets:                                   129
                             - Shells:                                       613
                             - Primitive Cartesian functions:                647
                             - Cartesian basis functions:                   1657
                             - Spherical basis functions:                   1545

  Maximum angular momentum of- Orbital basis functions:                        2
                             - Local part of the GTH pseudopotential:          2
                             - Non-local part of the GTH pseudopotential:      1


 SCF PARAMETERS         Density guess:                                    ATOMIC
                        --------------------------------------------------------
                        max_scf:                                             400
                        max_scf_history:                                       0
                        max_diis:                                              4
                        --------------------------------------------------------
                        eps_scf:                                        3.00E-07
                        eps_scf_history:                                0.00E+00
                        eps_diis:                                       1.00E-01
                        eps_eigval:                                     1.00E-05
                        --------------------------------------------------------
                        level_shift [a.u.]:                                 0.00
                        added MOs                                       100  100
                        --------------------------------------------------------
                        Mixing method:                            BROYDEN_MIXING
                                                charge density mixing in g-space
                        --------------------------------------------------------
                        Smear method:                                FERMI_DIRAC
                        Electronic temperature [K]:                        300.0
                        Electronic temperature [a.u.]:                  9.50E-04
                        Accuracy threshold:                             1.00E-10
                        --------------------------------------------------------
                        Outer loop SCF in use 
                        No variables optimised in outer loop
                        eps_scf                                         1.00E-06
                        max_scf                                              100
                        DIIS optimization
                        DIIS buffer length                                     3
                        step_size                                       5.00E-01

 Spin 1

 Number of electrons:                                                          5
 Number of occupied orbitals:                                                  5
 Number of molecular orbitals:                                               105

 Spin 2

 Number of electrons:                                                          4
 Number of occupied orbitals:                                                  4
 Number of molecular orbitals:                                               104

 Number of orbital functions:                                               1545
 Number of independent orbital functions:                                   1545

 Extrapolation method: initial_guess


 SCF WAVEFUNCTION OPTIMIZATION

  Step     Update method      Time    Convergence         Total energy    Change
  ------------------------------------------------------------------------------
     1 NoMix/Diag. 0.10E+00    3.5     0.36162911       -47.1683890720 -4.72E+01
     2 Broy./Diag. 0.10E+00    5.2     0.01261022       -47.1477600246  2.06E-02
     3 Broy./Diag. 0.10E+00    6.8     0.07745756       -47.1698675581 -2.21E-02
     4 Broy./Diag. 0.10E+00    5.7     0.00102819       -47.1533014555  1.66E-02
     5 Broy./Diag. 0.10E+00    6.5     0.01060951       -47.1624586695 -9.16E-03
     6 Broy./Diag. 0.10E+00    6.5     0.00284203       -47.1604060922  2.05E-03
     7 Broy./Diag. 0.10E+00    6.0     0.00999353       -47.1589830798  1.42E-03
     8 Broy./Diag. 0.10E+00    7.2     0.00336942       -47.1737368487 -1.48E-02
     9 Broy./Diag. 0.10E+00    5.7     0.00217514       -47.1753620919 -1.63E-03
    10 Broy./Diag. 0.10E+00    7.7     0.00577106       -47.1745144938  8.48E-04
    11 Broy./Diag. 0.10E+00    6.4     0.00122832       -47.1826565841 -8.14E-03
    12 Broy./Diag. 0.10E+00    7.0     0.00522378       -47.1762319512  6.42E-03
    13 Broy./Diag. 0.10E+00    7.3     0.00082473       -47.1768215874 -5.90E-04
    14 Broy./Diag. 0.10E+00    6.2     0.00111174       -47.1742355485  2.59E-03
    15 Broy./Diag. 0.10E+00    7.6     0.00086515       -47.1750844876 -8.49E-04
    16 Broy./Diag. 0.10E+00    6.3     0.00026890       -47.1726633502  2.42E-03
    17 Broy./Diag. 0.10E+00    7.1     0.00019617       -47.1729804128 -3.17E-04
    18 Broy./Diag. 0.10E+00    7.3     0.00023969       -47.1703338654  2.65E-03
    19 Broy./Diag. 0.10E+00    6.2     0.00022404       -47.1681626595  2.17E-03
    20 Broy./Diag. 0.10E+00    7.7     0.00030968       -47.1680781266  8.45E-05
    21 Broy./Diag. 0.10E+00    6.3     0.00031466       -47.1604582711  7.62E-03
    22 Broy./Diag. 0.10E+00    7.2     0.00007865       -47.1596319030  8.26E-04
    23 Broy./Diag. 0.10E+00    7.1     0.00045321       -47.1567048343  2.93E-03
    24 Broy./Diag. 0.10E+00    6.3     0.00005440       -47.1561841426  5.21E-04
    25 Broy./Diag. 0.10E+00    7.6     0.00034359       -47.1561203957  6.37E-05
    26 Broy./Diag. 0.10E+00    6.2     0.00012131       -47.1593261888 -3.21E-03
    27 Broy./Diag. 0.10E+00    7.2     0.00032337       -47.1611277800 -1.80E-03
    28 Broy./Diag. 0.10E+00    6.9     0.00025221       -47.1617893302 -6.62E-04
    29 Broy./Diag. 0.10E+00    6.4     0.00005983       -47.1619620702 -1.73E-04
    30 Broy./Diag. 0.10E+00    7.6     0.00028608       -47.1612325117  7.30E-04
    31 Broy./Diag. 0.10E+00    6.0     0.00003606       -47.1601364467  1.10E-03
    32 Broy./Diag. 0.10E+00    7.4     0.00006023       -47.1599218636  2.15E-04
    33 Broy./Diag. 0.10E+00    7.0     0.00007634       -47.1598246227  9.72E-05
    34 Broy./Diag. 0.10E+00    6.5     0.00002822       -47.1599230641 -9.84E-05
    35 Broy./Diag. 0.10E+00    7.7     0.00004196       -47.1597475092  1.76E-04
    36 Broy./Diag. 0.10E+00    6.1     0.00002326       -47.1595475548  2.00E-04
    37 Broy./Diag. 0.10E+00    7.5     0.00004882       -47.1593570213  1.91E-04
    38 Broy./Diag. 0.10E+00    6.8     0.00003261       -47.1594875661 -1.31E-04
    39 Broy./Diag. 0.10E+00    6.7     0.00002755       -47.1595241069 -3.65E-05
    40 Broy./Diag. 0.10E+00    7.6     0.00001848       -47.1594255046  9.86E-05
    41 Broy./Diag. 0.10E+00    5.7     0.00002823       -47.1594471080 -2.16E-05
    42 Broy./Diag. 0.10E+00    7.6     0.00001658       -47.1595556907 -1.09E-04
    43 Broy./Diag. 0.10E+00    6.4     0.00001836       -47.1594226445  1.33E-04
    44 Broy./Diag. 0.10E+00    7.1     0.00002094       -47.1592539694  1.69E-04
    45 Broy./Diag. 0.10E+00    7.3     0.00000656       -47.1592628368 -8.87E-06
    46 Broy./Diag. 0.10E+00    6.2     0.00001351       -47.1593233406 -6.05E-05
    47 Broy./Diag. 0.10E+00    7.7     0.00000748       -47.1594116648 -8.83E-05
    48 Broy./Diag. 0.10E+00    6.3     0.00000763       -47.1594073833  4.28E-06
    49 Broy./Diag. 0.10E+00    7.2     0.00001110       -47.1594453832 -3.80E-05
    50 Broy./Diag. 0.10E+00    7.2     0.00000842       -47.1594168153  2.86E-05
    51 Broy./Diag. 0.10E+00    6.2     0.00000397       -47.1593993013  1.75E-05
    52 Broy./Diag. 0.10E+00    7.6     0.00000297       -47.1593727265  2.66E-05
    53 Broy./Diag. 0.10E+00    6.2     0.00000977       -47.1593734912 -7.65E-07
    54 Broy./Diag. 0.10E+00    7.2     0.00000232       -47.1593898438 -1.64E-05
    55 Broy./Diag. 0.10E+00    7.0     0.00000218       -47.1593590707  3.08E-05
    56 Broy./Diag. 0.10E+00    6.4     0.00000343       -47.1593298310  2.92E-05
    57 Broy./Diag. 0.10E+00    7.6     0.00000313       -47.1593340767 -4.25E-06
    58 Broy./Diag. 0.10E+00    6.0     0.00000295       -47.1593495110 -1.54E-05
    59 Broy./Diag. 0.10E+00    7.4     0.00000265       -47.1593601955 -1.07E-05
    60 Broy./Diag. 0.10E+00    6.8     0.00000156       -47.1593523724  7.82E-06
    61 Broy./Diag. 0.10E+00    6.6     0.00000545       -47.1593462930  6.08E-06
    62 Broy./Diag. 0.10E+00    7.5     0.00000179       -47.1593552828 -8.99E-06
    63 Broy./Diag. 0.10E+00    5.8     0.00000200       -47.1593491175  6.17E-06
    64 Broy./Diag. 0.10E+00    7.7     0.00000381       -47.1593520440 -2.93E-06
    65 Broy./Diag. 0.10E+00    6.4     0.00000087       -47.1593550371 -2.99E-06
    66 Broy./Diag. 0.10E+00    7.0     0.00000296       -47.1593353956  1.96E-05
    67 Broy./Diag. 0.10E+00    7.2     0.00000421       -47.1593382609 -2.87E-06
    68 Broy./Diag. 0.10E+00    6.2     0.00000160       -47.1593490679 -1.08E-05
    69 Broy./Diag. 0.10E+00    7.8     0.00000146       -47.1593561528 -7.08E-06
    70 Broy./Diag. 0.10E+00    6.3     0.00000136       -47.1593573192 -1.17E-06
    71 Broy./Diag. 0.10E+00    7.3     0.00000298       -47.1593503921  6.93E-06
    72 Broy./Diag. 0.10E+00    7.1     0.00000117       -47.1593485058  1.89E-06
    73 Broy./Diag. 0.10E+00    6.3     0.00000096       -47.1593466013  1.90E-06
    74 Broy./Diag. 0.10E+00    7.6     0.00000260       -47.1593485493 -1.95E-06
    75 Broy./Diag. 0.10E+00    6.2     0.00000171       -47.1593487070 -1.58E-07
    76 Broy./Diag. 0.10E+00    7.2     0.00000119       -47.1593523972 -3.69E-06
    77 Broy./Diag. 0.10E+00    7.0     0.00000146       -47.1593564957 -4.10E-06
    78 Broy./Diag. 0.10E+00    6.3     0.00000124       -47.1593652205 -8.72E-06
    79 Broy./Diag. 0.10E+00    7.6     0.00000085       -47.1593696067 -4.39E-06
    80 Broy./Diag. 0.10E+00    6.0     0.00000097       -47.1593682079  1.40E-06
    81 Broy./Diag. 0.10E+00    7.4     0.00000055       -47.1593637287  4.48E-06
    82 Broy./Diag. 0.10E+00    7.1     0.00000088       -47.1593636580  7.07E-08
    83 Broy./Diag. 0.10E+00    6.4     0.00000030       -47.1593615499  2.11E-06

  *** SCF run converged in    83 steps ***


  Electronic density on regular grids:         -9.0001228222       -0.0001228222
  Core density on regular grids:                9.0000000000       -0.0000000000
  Total charge density on r-space grids:       -0.0001228222
  Total charge density g-space grids:          -0.0001228222

  Overlap energy of the core charge distribution:               0.00000000000000
  Self energy of the core charge distribution:                -96.60649019442629
  Core Hamiltonian energy:                                     29.74216630115996
  Hartree energy:                                              26.74704285334283
  Exchange-correlation energy:                                 -7.04207920348200
  Dispersion energy:                                           -0.00000130538029
  Electronic entropic energy:                                  -0.00000000110858
  Fermi energy:                                                -0.08541701777897

  Total energy:                                               -47.15936154987887

  outer SCF iter =    1 RMS gradient =   0.30E-06 energy =        -47.1593615499
  outer SCF loop converged in   1 iterations or   83 steps


  Integrated absolute spin density  :                               1.0000166837
  WARNING: S**2 computation does not yet treat fractional occupied orbitals

 *** WARNING in qs_loc_utils.F:1387 :: User requested the calculation of ***
 *** the localized wavefunction but the section LOCALIZE was not         ***
 *** specified. Localization will not be performed!                      ***


 -------------------------------------------------------------------------------
 -                                                                             -
 -  BSSE CALCULATION         FRAGMENT CONF: 11        FRAGMENT SUBCONF: 11     -
 -                           CHARGE =     0           MULTIPLICITY =     0     -
 -                                                                             -
 -                 ATOM INDEX                              ATOM NAME           -
 -                 ----------                              ---------           -
 -                      1                                   C                  -
 -                      2                                   C                  -
 -                      3                                   C                  -
 -                      4                                   C                  -
 -                      5                                   C                  -
 -                      6                                   C                  -
 -                      7                                   C                  -
 -                      8                                   C                  -
 -                      9                                   C                  -
 -                     10                                   C                  -
 -                     11                                   C                  -
 -                     12                                   C                  -
 -                     13                                   C                  -
 -                     14                                   C                  -
 -                     15                                   C                  -
 -                     16                                   C                  -
 -                     17                                   C                  -
 -                     18                                   C                  -
 -                     19                                   C                  -
 -                     20                                   C                  -
 -                     21                                   C                  -
 -                     22                                   C                  -
 -                     23                                   C                  -
 -                     24                                   C                  -
 -                     25                                   C                  -
 -                     26                                   C                  -
 -                     27                                   C                  -
 -                     28                                   C                  -
 -                     29                                   C                  -
 -                     30                                   C                  -
 -                     31                                   C                  -
 -                     32                                   C                  -
 -                     33                                   C                  -
 -                     34                                   C                  -
 -                     35                                   C                  -
 -                     36                                   C                  -
 -                     37                                   C                  -
 -                     38                                   C                  -
 -                     39                                   C                  -
 -                     40                                   C                  -
 -                     41                                   C                  -
 -                     42                                   C                  -
 -                     43                                   C                  -
 -                     44                                   C                  -
 -                     45                                   C                  -
 -                     46                                   C                  -
 -                     47                                   C                  -
 -                     48                                   C                  -
 -                     49                                   C                  -
 -                     50                                   C                  -
 -                     51                                   C                  -
 -                     52                                   C                  -
 -                     53                                   C                  -
 -                     54                                   C                  -
 -                     55                                   C                  -
 -                     56                                   C                  -
 -                     57                                   C                  -
 -                     58                                   C                  -
 -                     59                                   C                  -
 -                     60                                   C                  -
 -                     61                                   C                  -
 -                     62                                   C                  -
 -                     63                                   C                  -
 -                     64                                   C                  -
 -                     65                                   C                  -
 -                     66                                   C                  -
 -                     67                                   C                  -
 -                     68                                   C                  -
 -                     69                                   C                  -
 -                     70                                   C                  -
 -                     71                                   C                  -
 -                     72                                   C                  -
 -                     73                                   C                  -
 -                     74                                   C                  -
 -                     75                                   C                  -
 -                     76                                   C                  -
 -                     77                                   C                  -
 -                     78                                   C                  -
 -                     79                                   C                  -
 -                     80                                   C                  -
 -                     81                                   C                  -
 -                     82                                   C                  -
 -                     83                                   C                  -
 -                     84                                   C                  -
 -                     85                                   C                  -
 -                     86                                   C                  -
 -                     87                                   C                  -
 -                     88                                   C                  -
 -                     89                                   C                  -
 -                     90                                   C                  -
 -                     91                                   C                  -
 -                     92                                   C                  -
 -                     93                                   C                  -
 -                     94                                   C                  -
 -                     95                                   C                  -
 -                     96                                   C                  -
 -                     97                                   C                  -
 -                     98                                   C                  -
 -                     99                                   C                  -
 -                    100                                   C                  -
 -                    101                                   C                  -
 -                    102                                   C                  -
 -                    103                                   C                  -
 -                    104                                   C                  -
 -                    105                                   C                  -
 -                    106                                   C                  -
 -                    107                                   C                  -
 -                    108                                   C                  -
 -                    109                                   C                  -
 -                    110                                   C                  -
 -                    111                                   C                  -
 -                    112                                   C                  -
 -                    113                                   H                  -
 -                    114                                   H                  -
 -                    115                                   H                  -
 -                    116                                   H                  -
 -                    117                                   H                  -
 -                    118                                   H                  -
 -                    119                                   H                  -
 -                    120                                   H                  -
 -                    121                                   H                  -
 -                    122                                   H                  -
 -                    123                                   H                  -
 -                    124                                   H                  -
 -                    125                                   H                  -
 -                    126                                   H                  -
 -                    127                                   H                  -
 -                    128                                   H                  -
 -                    129                                   Na                 -
 -------------------------------------------------------------------------------

 *******************************************************************************
 *******************************************************************************
 **                                                                           **
 **     #####                         ##              ##                      **
 **    ##   ##            ##          ##              ##                      **
 **   ##     ##                       ##            ######                    **
 **   ##     ##  ##   ##  ##   #####  ##  ##   ####   ##    #####    #####    **
 **   ##     ##  ##   ##  ##  ##      ## ##   ##      ##   ##   ##  ##   ##   **
 **   ##  ## ##  ##   ##  ##  ##      ####     ###    ##   ######   ######    **
 **    ##  ###   ##   ##  ##  ##      ## ##      ##   ##   ##       ##        **
 **     #######   #####   ##   #####  ##  ##  ####    ##    #####   ##        **
 **           ##                                                    ##        **
 **                                                                           **
 **                                                ... make the atoms dance   **
 **                                                                           **
 **            Copyright (C) by CP2K developers group (2000 - 2018)           **
 **                                                                           **
 *******************************************************************************


 TOTAL NUMBERS AND MAXIMUM NUMBERS

  Total number of            - Atomic kinds:                                   3
                             - Atoms:                                        129
                             - Shell sets:                                   129
                             - Shells:                                       613
                             - Primitive Cartesian functions:                647
                             - Cartesian basis functions:                   1657
                             - Spherical basis functions:                   1545

  Maximum angular momentum of- Orbital basis functions:                        2
                             - Local part of the GTH pseudopotential:          2
                             - Non-local part of the GTH pseudopotential:      1


 SCF PARAMETERS         Density guess:                                    ATOMIC
                        --------------------------------------------------------
                        max_scf:                                             400
                        max_scf_history:                                       0
                        max_diis:                                              4
                        --------------------------------------------------------
                        eps_scf:                                        3.00E-07
                        eps_scf_history:                                0.00E+00
                        eps_diis:                                       1.00E-01
                        eps_eigval:                                     1.00E-05
                        --------------------------------------------------------
                        level_shift [a.u.]:                                 0.00
                        added MOs                                       100  100
                        --------------------------------------------------------
                        Mixing method:                            BROYDEN_MIXING
                                                charge density mixing in g-space
                        --------------------------------------------------------
                        Smear method:                                FERMI_DIRAC
                        Electronic temperature [K]:                        300.0
                        Electronic temperature [a.u.]:                  9.50E-04
                        Accuracy threshold:                             1.00E-10
                        --------------------------------------------------------
                        Outer loop SCF in use 
                        No variables optimised in outer loop
                        eps_scf                                         1.00E-06
                        max_scf                                              100
                        DIIS optimization
                        DIIS buffer length                                     3
                        step_size                                       5.00E-01

 Spin 1

 Number of electrons:                                                        237
 Number of occupied orbitals:                                                237
 Number of molecular orbitals:                                               337

 Spin 2

 Number of electrons:                                                        236
 Number of occupied orbitals:                                                236
 Number of molecular orbitals:                                               336

 Number of orbital functions:                                               1545
 Number of independent orbital functions:                                   1545

 Extrapolation method: initial_guess


 SCF WAVEFUNCTION OPTIMIZATION

  Step     Update method      Time    Convergence         Total energy    Change
  ------------------------------------------------------------------------------
     1 NoMix/Diag. 0.10E+00    3.0     0.50244158      -683.6309951167 -6.84E+02
     2 Broy./Diag. 0.10E+00    5.6     0.04431816      -656.3542491547  2.73E+01
     3 Broy./Diag. 0.10E+00    6.2     7.58084369      -672.5963428757 -1.62E+01
     4 Broy./Diag. 0.10E+00    6.2     7.58080893      -646.2810799784  2.63E+01
     5 Broy./Diag. 0.10E+00    5.9     6.96233948      -683.9989988056 -3.77E+01
     6 Broy./Diag. 0.10E+00    6.9     6.96233773      -666.1515671675  1.78E+01
     7 Broy./Diag. 0.10E+00    5.7     0.06340828      -687.0336606788 -2.09E+01
     8 Broy./Diag. 0.10E+00    7.3     7.49655368      -688.1209411429 -1.09E+00
     9 Broy./Diag. 0.10E+00    5.7     7.49654788      -676.3827997252  1.17E+01
    10 Broy./Diag. 0.10E+00    7.5     7.61392136      -688.5885950316 -1.22E+01
    11 Broy./Diag. 0.10E+00    6.9     7.61693975      -644.2143863765  4.44E+01
    12 Broy./Diag. 0.10E+00    6.6     7.65804035      -688.8876179315 -4.47E+01
    13 Broy./Diag. 0.10E+00    7.6     7.65803957      -622.7196951846  6.62E+01
    14 Broy./Diag. 0.10E+00    5.9     0.00576168      -689.0929530644 -6.64E+01
    15 Broy./Diag. 0.10E+00    7.7     0.02960274      -689.5036632953 -4.11E-01
    16 Broy./Diag. 0.10E+00    6.6     0.01350295      -690.2668446324 -7.63E-01
    17 Broy./Diag. 0.10E+00    6.9     0.00864940      -690.4742359077 -2.07E-01
    18 Broy./Diag. 0.10E+00    7.6     0.01085808      -690.5398381720 -6.56E-02
    19 Broy./Diag. 0.10E+00    5.9     0.00571638      -690.5149325304  2.49E-02
    20 Broy./Diag. 0.10E+00    7.8     0.01290380      -690.4296113485  8.53E-02
    21 Broy./Diag. 0.10E+00    6.5     0.01110825      -690.4887132367 -5.91E-02
    22 Broy./Diag. 0.10E+00    7.0     0.29775095      -690.5459016264 -5.72E-02
    23 Broy./Diag. 0.10E+00    7.6     0.27163836      -691.1696545763 -6.24E-01
    24 Broy./Diag. 0.10E+00    5.8     0.02449979      -690.6792057823  4.90E-01
    25 Broy./Diag. 0.10E+00    7.8     0.03339325      -690.7157518274 -3.65E-02
    26 Broy./Diag. 0.10E+00    6.4     0.06852507      -690.7955401578 -7.98E-02
    27 Broy./Diag. 0.10E+00    7.0     0.00491304      -690.9170164007 -1.21E-01
    28 Broy./Diag. 0.10E+00    7.4     0.07505214      -690.8852348129  3.18E-02
    29 Broy./Diag. 0.10E+00    6.1     0.01853766      -690.7566109917  1.29E-01
    30 Broy./Diag. 0.10E+00    7.7     0.02668035      -690.7778448967 -2.12E-02
    31 Broy./Diag. 0.10E+00    6.2     0.00824326      -690.8103509249 -3.25E-02
    32 Broy./Diag. 0.10E+00    7.2     0.03080606      -690.7945943396  1.58E-02
    33 Broy./Diag. 0.10E+00    7.2     0.02556062      -690.7410103494  5.36E-02
    34 Broy./Diag. 0.10E+00    6.3     0.01275511      -690.7871601817 -4.61E-02
    35 Broy./Diag. 0.10E+00    7.6     0.00883955      -690.8218760867 -3.47E-02
    36 Broy./Diag. 0.10E+00    6.2     0.00564867      -690.8283591548 -6.48E-03
    37 Broy./Diag. 0.10E+00    7.2     0.00374701      -690.8533860282 -2.50E-02
    38 Broy./Diag. 0.10E+00    7.1     0.00225225      -690.8531477768  2.38E-04
    39 Broy./Diag. 0.10E+00    6.3     0.00321084      -690.8569887485 -3.84E-03
    40 Broy./Diag. 0.10E+00    7.7     0.00369674      -690.8585873744 -1.60E-03
    41 Broy./Diag. 0.10E+00    6.2     0.00702273      -690.8681257796 -9.54E-03
    42 Broy./Diag. 0.10E+00    7.3     0.00262909      -690.8616640425  6.46E-03
    43 Broy./Diag. 0.10E+00    7.2     0.00280297      -690.8676044171 -5.94E-03
    44 Broy./Diag. 0.10E+00    6.3     0.00307835      -690.8723647313 -4.76E-03
    45 Broy./Diag. 0.10E+00    7.6     0.00084441      -690.8681485761  4.22E-03
    46 Broy./Diag. 0.10E+00    6.2     0.00282439      -690.8662742033  1.87E-03
    47 Broy./Diag. 0.10E+00    7.2     0.00370491      -690.8666430168 -3.69E-04
    48 Broy./Diag. 0.10E+00    7.1     0.00214583      -690.8623816461  4.26E-03
    49 Broy./Diag. 0.10E+00    6.3     0.00177783      -690.8667500375 -4.37E-03
    50 Broy./Diag. 0.10E+00    7.7     0.00142632      -690.8666598048  9.02E-05
    51 Broy./Diag. 0.10E+00    6.4     0.00154449      -690.8639151915  2.74E-03
    52 Broy./Diag. 0.10E+00    7.2     0.00021351      -690.8656489533 -1.73E-03
    53 Broy./Diag. 0.10E+00    7.1     0.00169506      -690.8661912733 -5.42E-04
    54 Broy./Diag. 0.10E+00    6.3     0.00111142      -690.8639363248  2.25E-03
    55 Broy./Diag. 0.10E+00    7.7     0.00014591      -690.8655542804 -1.62E-03
    56 Broy./Diag. 0.10E+00    6.3     0.00021177      -690.8658188959 -2.65E-04
    57 Broy./Diag. 0.10E+00    7.1     0.00027416      -690.8664830561 -6.64E-04
    58 Broy./Diag. 0.10E+00    7.3     0.00056552      -690.8671448827 -6.62E-04
    59 Broy./Diag. 0.10E+00    6.2     0.00050986      -690.8670066030  1.38E-04
    60 Broy./Diag. 0.10E+00    7.7     0.00057926      -690.8674249732 -4.18E-04
    61 Broy./Diag. 0.10E+00    6.3     0.00103695      -690.8676339550 -2.09E-04
    62 Broy./Diag. 0.10E+00    7.1     0.00006317      -690.8665375838  1.10E-03
    63 Broy./Diag. 0.10E+00    7.3     0.00054323      -690.8663541821  1.83E-04
    64 Broy./Diag. 0.10E+00    6.2     0.00058883      -690.8666168963 -2.63E-04
    65 Broy./Diag. 0.10E+00    7.7     0.00031627      -690.8671268308 -5.10E-04
    66 Broy./Diag. 0.10E+00    6.4     0.00028880      -690.8672337201 -1.07E-04
[...]
   244 Broy./Diag. 0.10E+00    6.0     0.00026535      -690.8691928511 -7.90E-04
   245 Broy./Diag. 0.10E+00    7.7     0.00137171      -690.8691728508  2.00E-05
   246 Broy./Diag. 0.10E+00    6.8     0.00076718      -690.8695435066 -3.71E-04
   247 Broy./Diag. 0.10E+00    6.8     0.00268504      -690.8692938889  2.50E-04
   248 Broy./Diag. 0.10E+00    7.7     0.00681492      -690.8684132077  8.81E-04
   249 Broy./Diag. 0.10E+00    6.0     0.00021944      -690.8664086463  2.00E-03
   250 Broy./Diag. 0.10E+00    7.8     0.00395262      -690.8663466883  6.20E-05
   251 Broy./Diag. 0.10E+00    6.7     0.00418538      -690.8654385032  9.08E-04
   252 Broy./Diag. 0.10E+00    6.7     0.00015525      -690.8643976887  1.04E-03
   253 Broy./Diag. 0.10E+00    7.7     0.00013437      -690.8643841267  1.36E-05
   254 Broy./Diag. 0.10E+00    6.1     0.00015529      -690.8643386115  4.55E-05
   255 Broy./Diag. 0.10E+00    7.5     0.00003790      -690.8643485320 -9.92E-06
   256 Broy./Diag. 0.10E+00    7.1     0.00068254      -690.8642780389  7.05E-05
   257 Broy./Diag. 0.10E+00    6.4     0.00007217      -690.8645734883 -2.95E-04
   258 Broy./Diag. 0.10E+00    7.7     0.00213583      -690.8645658876  7.60E-06
   259 Broy./Diag. 0.10E+00    6.1     0.00034022      -690.8649595377 -3.94E-04
   260 Broy./Diag. 0.10E+00    7.6     0.00536194      -690.8647871697  1.72E-04
   261 Broy./Diag. 0.10E+00    7.0     0.00124386      -690.8663188963 -1.53E-03
   262 Broy./Diag. 0.10E+00    6.4     0.00050986      -690.8659736579  3.45E-04
   263 Broy./Diag. 0.10E+00    7.7     0.00052377      -690.8658599452  1.14E-04
   264 Broy./Diag. 0.10E+00    6.1     0.00080018      -690.8654699781  3.90E-04
   265 Broy./Diag. 0.10E+00    7.5     0.00167808      -690.8658213212 -3.51E-04
   266 Broy./Diag. 0.10E+00    7.1     0.00532647      -690.8655289427  2.92E-04
   267 Broy./Diag. 0.10E+00    6.5     0.00023929      -690.8642963386  1.23E-03
   268 Broy./Diag. 0.10E+00    7.7     0.00004513      -690.8642595503  3.68E-05
   269 Broy./Diag. 0.10E+00    6.0     0.00242049      -690.8642454477  1.41E-05
   270 Broy./Diag. 0.10E+00    7.7     0.00323367      -690.8645544380 -3.09E-04
   271 Broy./Diag. 0.10E+00    6.9     0.00170516      -690.8654508734 -8.96E-04
   272 Broy./Diag. 0.10E+00    6.6     0.00270323      -690.8650733376  3.78E-04
   273 Broy./Diag. 0.10E+00    7.7     0.00020672      -690.8656865486 -6.13E-04
   274 Broy./Diag. 0.10E+00    6.1     0.00155527      -690.8656351043  5.14E-05
   275 Broy./Diag. 0.10E+00    7.6     0.00244569      -690.8652827152  3.52E-04
   276 Broy./Diag. 0.10E+00    7.0     0.00269739      -690.8647165736  5.66E-04
   277 Broy./Diag. 0.10E+00    6.5     0.00010198      -690.8643452650  3.71E-04
   278 Broy./Diag. 0.10E+00    7.7     0.00035168      -690.8643546491 -9.38E-06
   279 Broy./Diag. 0.10E+00    6.1     0.00057667      -690.8643002403  5.44E-05
   280 Broy./Diag. 0.10E+00    7.5     0.00159279      -690.8641852562  1.15E-04
   281 Broy./Diag. 0.10E+00    7.2     0.00063689      -690.8639330472  2.52E-04
   282 Broy./Diag. 0.10E+00    6.5     0.00030178      -690.8639553487 -2.23E-05
   283 Broy./Diag. 0.10E+00    7.7     0.00068711      -690.8640090182 -5.37E-05
   284 Broy./Diag. 0.10E+00    6.3     0.00028030      -690.8639445220  6.45E-05
   285 Broy./Diag. 0.10E+00    7.2     0.00020533      -690.8639030359  4.15E-05
   286 Broy./Diag. 0.10E+00    7.2     0.00111960      -690.8639773383 -7.43E-05
   287 Broy./Diag. 0.10E+00    6.3     0.00010930      -690.8641217558 -1.44E-04
   288 Broy./Diag. 0.10E+00    7.7     0.00038805      -690.8641546502 -3.29E-05
   289 Broy./Diag. 0.10E+00    6.4     0.00076887      -690.8641824134 -2.78E-05
   290 Broy./Diag. 0.10E+00    7.2     0.00019798      -690.8640081152  1.74E-04
   291 Broy./Diag. 0.10E+00    7.4     0.00001878      -690.8641116302 -1.04E-04
   292 Broy./Diag. 0.10E+00    6.2     0.00112599      -690.8640929907  1.86E-05
   293 Broy./Diag. 0.10E+00    7.7     0.00036655      -690.8640502303  4.28E-05
   294 Broy./Diag. 0.10E+00    6.4     0.00032779      -690.8641889653 -1.39E-04
   295 Broy./Diag. 0.10E+00    7.2     0.00088901      -690.8639620013  2.27E-04
   296 Broy./Diag. 0.10E+00    7.3     0.00095971      -690.8643727811 -4.11E-04
   297 Broy./Diag. 0.10E+00    6.2     0.00135117      -690.8641324837  2.40E-04
   298 Broy./Diag. 0.10E+00    7.7     0.00062757      -690.8640912321  4.13E-05
   299 Broy./Diag. 0.10E+00    6.3     0.00038031      -690.8647519610 -6.61E-04
   300 Broy./Diag. 0.10E+00    7.2     0.00124973      -690.8648381618 -8.62E-05
   301 Broy./Diag. 0.10E+00    7.4     0.00029251      -690.8643701537  4.68E-04
   302 Broy./Diag. 0.10E+00    6.1     0.00104399      -690.8643183484  5.18E-05
   303 Broy./Diag. 0.10E+00    7.7     0.00027748      -690.8643306180 -1.23E-05
   304 Broy./Diag. 0.10E+00    6.4     0.00042513      -690.8643232902  7.33E-06
   305 Broy./Diag. 0.10E+00    7.2     0.00032544      -690.8651958070 -8.73E-04
   306 Broy./Diag. 0.10E+00    7.2     0.00018593      -690.8660873410 -8.92E-04
   307 Broy./Diag. 0.10E+00    6.2     0.00108153      -690.8663232890 -2.36E-04
   308 Broy./Diag. 0.10E+00    7.7     0.00018441      -690.8662931594  3.01E-05
   309 Broy./Diag. 0.10E+00    6.2     0.00015629      -690.8664050754 -1.12E-04
   310 Broy./Diag. 0.10E+00    7.2     0.00082931      -690.8663740661  3.10E-05
   311 Broy./Diag. 0.10E+00    7.0     0.00017256      -690.8665593589 -1.85E-04
   312 Broy./Diag. 0.10E+00    6.4     0.00134806      -690.8664896942  6.97E-05
   313 Broy./Diag. 0.10E+00    7.7     0.00125183      -690.8663436850  1.46E-04
   314 Broy./Diag. 0.10E+00    6.3     0.00053982      -690.8663904032 -4.67E-05
   315 Broy./Diag. 0.10E+00    7.2     0.00027539      -690.8665645398 -1.74E-04
   316 Broy./Diag. 0.10E+00    7.2     0.00008481      -690.8665612130  3.33E-06
   317 Broy./Diag. 0.10E+00    6.3     0.00007961      -690.8665317526  2.95E-05
   318 Broy./Diag. 0.10E+00    7.7     0.00034431      -690.8664667846  6.50E-05
   319 Broy./Diag. 0.10E+00    6.2     0.00043849      -690.8665626746 -9.59E-05
   320 Broy./Diag. 0.10E+00    7.3     0.00028814      -690.8665627403 -6.57E-08
   321 Broy./Diag. 0.10E+00    7.2     0.00050345      -690.8666148676 -5.21E-05
   322 Broy./Diag. 0.10E+00    6.3     0.00028123      -690.8665443902  7.05E-05
   323 Broy./Diag. 0.10E+00    7.7     0.00000550      -690.8665277101  1.67E-05
   324 Broy./Diag. 0.10E+00    6.3     0.00007934      -690.8665137120  1.40E-05
   325 Broy./Diag. 0.10E+00    7.1     0.00003044      -690.8665526861 -3.90E-05
   326 Broy./Diag. 0.10E+00    7.1     0.00068476      -690.8665124845  4.02E-05
   327 Broy./Diag. 0.10E+00    6.3     0.00048757      -690.8666841594 -1.72E-04
   328 Broy./Diag. 0.10E+00    7.6     0.00034036      -690.8666384366  4.57E-05
   329 Broy./Diag. 0.10E+00    6.3     0.00005264      -690.8666455964 -7.16E-06
   330 Broy./Diag. 0.10E+00    7.3     0.00043342      -690.8666361382  9.46E-06
   331 Broy./Diag. 0.10E+00    7.3     0.00065427      -690.8666469246 -1.08E-05
   332 Broy./Diag. 0.10E+00    6.3     0.00002501      -690.8665539102  9.30E-05
   333 Broy./Diag. 0.10E+00    7.7     0.00002459      -690.8665746388 -2.07E-05
   334 Broy./Diag. 0.10E+00    6.4     0.00001871      -690.8665679642  6.67E-06
   335 Broy./Diag. 0.10E+00    7.2     0.00007626      -690.8665906262 -2.27E-05
   336 Broy./Diag. 0.10E+00    7.4     0.00004383      -690.8666196832 -2.91E-05
   337 Broy./Diag. 0.10E+00    6.2     0.00008750      -690.8666096781  1.00E-05
   338 Broy./Diag. 0.10E+00    7.8     0.00030387      -690.8666146201 -4.94E-06
   339 Broy./Diag. 0.10E+00    6.4     0.00008453      -690.8665984091  1.62E-05
   340 Broy./Diag. 0.10E+00    7.2     0.00011070      -690.8666114051 -1.30E-05
   341 Broy./Diag. 0.10E+00    7.3     0.00114015      -690.8666142697 -2.86E-06
   342 Broy./Diag. 0.10E+00    6.2     0.00016123      -690.8666601908 -4.59E-05
   343 Broy./Diag. 0.10E+00    7.7     0.00053579      -690.8666238031  3.64E-05
   344 Broy./Diag. 0.10E+00    6.4     0.00009668      -690.8666761283 -5.23E-05
   345 Broy./Diag. 0.10E+00    7.1     0.00003855      -690.8666900901 -1.40E-05
   346 Broy./Diag. 0.10E+00    7.3     0.00025371      -690.8666853526  4.74E-06
   347 Broy./Diag. 0.10E+00    6.2     0.00045593      -690.8666906257 -5.27E-06
   348 Broy./Diag. 0.10E+00    7.7     0.00069697      -690.8666684839  2.21E-05
   349 Broy./Diag. 0.10E+00    6.4     0.00023656      -690.8666281815  4.03E-05
   350 Broy./Diag. 0.10E+00    7.2     0.00014537      -690.8665916360  3.65E-05
   351 Broy./Diag. 0.10E+00    7.4     0.00021426      -690.8665867635  4.87E-06
   352 Broy./Diag. 0.10E+00    6.0     0.00017536      -690.8664928422  9.39E-05
   353 Broy./Diag. 0.10E+00    7.7     0.00014127      -690.8664765199  1.63E-05
   354 Broy./Diag. 0.10E+00    6.4     0.00012354      -690.8664480450  2.85E-05
   355 Broy./Diag. 0.10E+00    7.1     0.00010680      -690.8664642564 -1.62E-05
   356 Broy./Diag. 0.10E+00    7.4     0.00007459      -690.8664425412  2.17E-05
   357 Broy./Diag. 0.10E+00    6.1     0.00009165      -690.8664613634 -1.88E-05
   358 Broy./Diag. 0.10E+00    7.8     0.00013840      -690.8664384542  2.29E-05
   359 Broy./Diag. 0.10E+00    6.3     0.00011482      -690.8664449173 -6.46E-06
   360 Broy./Diag. 0.10E+00    7.2     0.00029153      -690.8664636919 -1.88E-05
   361 Broy./Diag. 0.10E+00    7.4     0.00026320      -690.8664831043 -1.94E-05
   362 Broy./Diag. 0.10E+00    6.2     0.00039534      -690.8665126707 -2.96E-05
   363 Broy./Diag. 0.10E+00    7.7     0.00001485      -690.8665402715 -2.76E-05
   364 Broy./Diag. 0.10E+00    6.3     0.00034244      -690.8665335079  6.76E-06
   365 Broy./Diag. 0.10E+00    7.3     0.00006796      -690.8665623051 -2.88E-05
   366 Broy./Diag. 0.10E+00    7.4     0.00064082      -690.8665524109  9.89E-06
   367 Broy./Diag. 0.10E+00    6.2     0.00015896      -690.8666296639 -7.73E-05
   368 Broy./Diag. 0.10E+00    7.7     0.00004817      -690.8666208794  8.78E-06
   369 Broy./Diag. 0.10E+00    6.4     0.00006798      -690.8666272681 -6.39E-06
   370 Broy./Diag. 0.10E+00    7.1     0.00021665      -690.8666279959 -7.28E-07
   371 Broy./Diag. 0.10E+00    7.4     0.00038574      -690.8665920200  3.60E-05
   372 Broy./Diag. 0.10E+00    6.1     0.00119504      -690.8666066750 -1.47E-05
   373 Broy./Diag. 0.10E+00    7.7     0.00010758      -690.8665428640  6.38E-05
   374 Broy./Diag. 0.10E+00    6.4     0.00002550      -690.8665418865  9.78E-07
   375 Broy./Diag. 0.10E+00    7.2     0.00009430      -690.8665555058 -1.36E-05
   376 Broy./Diag. 0.10E+00    7.4     0.00004459      -690.8665605533 -5.05E-06
   377 Broy./Diag. 0.10E+00    6.0     0.00011421      -690.8665581363  2.42E-06
   378 Broy./Diag. 0.10E+00    7.8     0.00006315      -690.8665543994  3.74E-06
   379 Broy./Diag. 0.10E+00    6.4     0.00011941      -690.8665482811  6.12E-06
   380 Broy./Diag. 0.10E+00    7.1     0.00044805      -690.8665502216 -1.94E-06
   381 Broy./Diag. 0.10E+00    7.5     0.00006341      -690.8665415288  8.69E-06
   382 Broy./Diag. 0.10E+00    6.0     0.00000674      -690.8665675323 -2.60E-05
   383 Broy./Diag. 0.10E+00    7.8     0.00009677      -690.8665621538  5.38E-06
   384 Broy./Diag. 0.10E+00    6.5     0.00033784      -690.8665628586 -7.05E-07
   385 Broy./Diag. 0.10E+00    7.2     0.00071254      -690.8665591969  3.66E-06
   386 Broy./Diag. 0.10E+00    7.7     0.00016512      -690.8665754661 -1.63E-05
   387 Broy./Diag. 0.10E+00    5.8     0.00003605      -690.8665867315 -1.13E-05
   388 Broy./Diag. 0.10E+00    7.7     0.00003803      -690.8665693120  1.74E-05
   389 Broy./Diag. 0.10E+00    6.6     0.00040314      -690.8665734194 -4.11E-06
   390 Broy./Diag. 0.10E+00    7.1     0.00028418      -690.8665697947  3.62E-06
   391 Broy./Diag. 0.10E+00    7.7     0.00033788      -690.8665501156  1.97E-05
   392 Broy./Diag. 0.10E+00    6.0     0.00005807      -690.8665669732 -1.69E-05
   393 Broy./Diag. 0.10E+00    7.8     0.00003555      -690.8665502199  1.68E-05
   394 Broy./Diag. 0.10E+00    7.0     0.00017063      -690.8665669358 -1.67E-05
   395 Broy./Diag. 0.10E+00    6.6     0.00024970      -690.8665713857 -4.45E-06
   396 Broy./Diag. 0.10E+00    7.7     0.00008181      -690.8665537742  1.76E-05
   397 Broy./Diag. 0.10E+00    6.1     0.00007765      -690.8665846357 -3.09E-05
   398 Broy./Diag. 0.10E+00    7.5     0.00006938      -690.8665734923  1.11E-05
   399 Broy./Diag. 0.10E+00    7.2     0.00012159      -690.8665537714  1.97E-05
   400 Broy./Diag. 0.10E+00    6.4     0.00007574      -690.8665622223 -8.45E-06

  Leaving inner SCF loop after reaching   400 steps.


  Electronic density on regular grids:       -473.0001233542       -0.0001233542
  Core density on regular grids:              472.9999999995       -0.0000000005
  Total charge density on r-space grids:       -0.0001233547
  Total charge density g-space grids:          -0.0001233547

  Overlap energy of the core charge distribution:               0.00002384473555
  Self energy of the core charge distribution:              -1612.69496133404004
  Core Hamiltonian energy:                                    507.27181667197380
  Hartree energy:                                             619.85682122071330
  Exchange-correlation energy:                               -205.04227942859816
  Dispersion energy:                                           -0.25538658748617
  Electronic entropic energy:                                  -0.00259665903644
  Fermi energy:                                                -0.10112675793964

  Total energy:                                              -690.86656222227543

  outer SCF iter =    1 RMS gradient =   0.76E-04 energy =       -690.8665622223
     1 Broy./Diag. 0.10E+00   12.9     0.00111346      -690.8665734589 -1.12E-05
     2 Broy./Diag. 0.10E+00    6.1     0.00166114      -690.8674720194 -8.99E-04
     3 Broy./Diag. 0.10E+00    7.5     0.00024920      -690.8667086257  7.63E-04
     4 Broy./Diag. 0.10E+00    7.1     0.00010534      -690.8667035181  5.11E-06
     5 Broy./Diag. 0.10E+00    6.5     0.00012369      -690.8666956343  7.88E-06
     6 Broy./Diag. 0.10E+00    7.6     0.00006781      -690.8666871757  8.46E-06
     7 Broy./Diag. 0.10E+00    6.0     0.00020366      -690.8667180073 -3.08E-05
     8 Broy./Diag. 0.10E+00    7.3     0.00004257      -690.8667052949  1.27E-05
     9 Broy./Diag. 0.10E+00    6.1     0.00003018      -690.8666911035  1.42E-05
    10 Broy./Diag. 0.10E+00    7.3     0.00070564      -690.8667073306 -1.62E-05
    11 Broy./Diag. 0.10E+00    6.2     0.00208715      -690.8666481393  5.92E-05
    12 Broy./Diag. 0.10E+00    7.7     0.00037772      -690.8665586587  8.95E-05
    13 Broy./Diag. 0.10E+00    6.3     0.00047134      -690.8665481650  1.05E-05
    14 Broy./Diag. 0.10E+00    7.2     0.00012657      -690.8666042643 -5.61E-05
    15 Broy./Diag. 0.10E+00    7.3     0.00021127      -690.8666507937 -4.65E-05
    16 Broy./Diag. 0.10E+00    6.2     0.00044053      -690.8666513842 -5.90E-07
    17 Broy./Diag. 0.10E+00    7.7     0.00020243      -690.8666967371 -4.54E-05
    18 Broy./Diag. 0.10E+00    6.4     0.00020343      -690.8667672264 -7.05E-05
    19 Broy./Diag. 0.10E+00    7.2     0.00004554      -690.8667983195 -3.11E-05
    20 Broy./Diag. 0.10E+00    7.4     0.00021240      -690.8667971932  1.13E-06
    21 Broy./Diag. 0.10E+00    6.1     0.00022956      -690.8667952418  1.95E-06
    22 Broy./Diag. 0.10E+00    7.7     0.00032143      -690.8667987809 -3.54E-06
    23 Broy./Diag. 0.10E+00    6.6     0.00000743      -690.8667910933  7.69E-06
    24 Broy./Diag. 0.10E+00    7.1     0.00002314      -690.8667956544 -4.56E-06
    25 Broy./Diag. 0.10E+00    7.4     0.00055808      -690.8667930975  2.56E-06
    26 Broy./Diag. 0.10E+00    6.1     0.00001556      -690.8667988142 -5.72E-06
    27 Broy./Diag. 0.10E+00    7.7     0.00013994      -690.8667871995  1.16E-05
    28 Broy./Diag. 0.10E+00    6.6     0.00011306      -690.8667584928  2.87E-05
    29 Broy./Diag. 0.10E+00    7.0     0.00006864      -690.8667434127  1.51E-05
    30 Broy./Diag. 0.10E+00    7.6     0.00006340      -690.8667508086 -7.40E-06
    31 Broy./Diag. 0.10E+00    5.8     0.00001646      -690.8667591955 -8.39E-06
    32 Broy./Diag. 0.10E+00    7.7     0.00070322      -690.8667575991  1.60E-06
    33 Broy./Diag. 0.10E+00    6.5     0.00004383      -690.8667679402 -1.03E-05
    34 Broy./Diag. 0.10E+00    7.0     0.00002554      -690.8667691632 -1.22E-06
    35 Broy./Diag. 0.10E+00    7.5     0.00004381      -690.8667677509  1.41E-06
    36 Broy./Diag. 0.10E+00    5.9     0.00003987      -690.8667740805 -6.33E-06
    37 Broy./Diag. 0.10E+00    7.8     0.00054970      -690.8667640099  1.01E-05
    38 Broy./Diag. 0.10E+00    6.6     0.00024629      -690.8667929053 -2.89E-05
    39 Broy./Diag. 0.10E+00    7.1     0.00009178      -690.8668243384 -3.14E-05
    40 Broy./Diag. 0.10E+00    7.6     0.00003901      -690.8668124832  1.19E-05
    41 Broy./Diag. 0.10E+00    5.9     0.00005579      -690.8668312194 -1.87E-05
    42 Broy./Diag. 0.10E+00    7.8     0.00015521      -690.8668049330  2.63E-05
    43 Broy./Diag. 0.10E+00    6.6     0.00013408      -690.8668166762 -1.17E-05
    44 Broy./Diag. 0.10E+00    7.0     0.00001072      -690.8668110429  5.63E-06
    45 Broy./Diag. 0.10E+00    7.6     0.00002247      -690.8668154254 -4.38E-06
    46 Broy./Diag. 0.10E+00    5.8     0.00001535      -690.8668147356  6.90E-07
    47 Broy./Diag. 0.10E+00    7.7     0.00003996      -690.8667852152  2.95E-05
    48 Broy./Diag. 0.10E+00    6.4     0.00003158      -690.8667555610  2.97E-05
    49 Broy./Diag. 0.10E+00    7.1     0.00004753      -690.8667614799 -5.92E-06
    50 Broy./Diag. 0.10E+00    7.4     0.00014914      -690.8667344671  2.70E-05
    51 Broy./Diag. 0.10E+00    6.0     0.00061701      -690.8667942409 -5.98E-05
    52 Broy./Diag. 0.10E+00    7.8     0.00017109      -690.8667135505  8.07E-05
    53 Broy./Diag. 0.10E+00    6.5     0.00013867      -690.8666967221  1.68E-05
    54 Broy./Diag. 0.10E+00    7.0     0.00012588      -690.8666506174  4.61E-05
    55 Broy./Diag. 0.10E+00    7.4     0.00010232      -690.8666320109  1.86E-05
    56 Broy./Diag. 0.10E+00    6.1     0.00007155      -690.8666140322  1.80E-05
    57 Broy./Diag. 0.10E+00    7.7     0.00065577      -690.8666315592 -1.75E-05
    58 Broy./Diag. 0.10E+00    6.3     0.00004744      -690.8666267497  4.81E-06
    59 Broy./Diag. 0.10E+00    7.2     0.00005484      -690.8665970457  2.97E-05
    60 Broy./Diag. 0.10E+00    7.3     0.00013133      -690.8665698223  2.72E-05
    61 Broy./Diag. 0.10E+00    6.2     0.00004487      -690.8666180880 -4.83E-05
    62 Broy./Diag. 0.10E+00    7.8     0.00003089      -690.8666042059  1.39E-05
    63 Broy./Diag. 0.10E+00    6.2     0.00000518      -690.8666060862 -1.88E-06
    64 Broy./Diag. 0.10E+00    7.2     0.00015951      -690.8666049207  1.17E-06
    65 Broy./Diag. 0.10E+00    7.3     0.00001278      -690.8665939821  1.09E-05
    66 Broy./Diag. 0.10E+00    6.3     0.00008032      -690.8665934835  4.99E-07
    67 Broy./Diag. 0.10E+00    7.6     0.00006708      -690.8666045165 -1.10E-05
    68 Broy./Diag. 0.10E+00    6.2     0.00005457      -690.8665912661  1.33E-05
    69 Broy./Diag. 0.10E+00    7.2     0.00009204      -690.8665926854 -1.42E-06
    70 Broy./Diag. 0.10E+00    6.9     0.00020152      -690.8665716210  2.11E-05
    71 Broy./Diag. 0.10E+00    6.4     0.00005221      -690.8665950485 -2.34E-05
    72 Broy./Diag. 0.10E+00    7.6     0.00005125      -690.8665972113 -2.16E-06
-------------------------------------------------------
Primary job  terminated normally, but 1 process returned
a non-zero exit code. Per user-direction, the job has been aborted.
-------------------------------------------------------
