 DBCSR| CPU Multiplication driver                                           BLAS (U)
 DBCSR| Multrec recursion limit                                              512 (U)
 DBCSR| Multiplication stack size                                           1000 (D)
 DBCSR| Maximum elements for images                                    UNLIMITED (U)
 DBCSR| Multiplicative factor virtual images                                   1 (U)
 DBCSR| Use multiplication densification                                       T (D)
 DBCSR| Multiplication size stacks                                             3 (U)
 DBCSR| Use memory pool for CPU allocation                                     F (U)
 DBCSR| Number of 3D layers                                               SINGLE (U)
 DBCSR| Use MPI memory allocation                                              F (U)
 DBCSR| Use RMA algorithm                                                      F (U)
 DBCSR| Use Communication thread                                               T (U)
 DBCSR| Communication thread load                                             87 (D)
 DBCSR| MPI: My process id                                                     0
 DBCSR| MPI: Number of processes                                              16
 DBCSR| OMP: Current number of threads                                         1
 DBCSR| OMP: Max number of threads                                             1
 DBCSR| Split modifier for TAS multiplication algorithm                  1.0E+00 (U)


  **** **** ******  **  PROGRAM STARTED AT               2025-06-03 14:28:20.402
 ***** ** ***  *** **   PROGRAM STARTED ON                            sebnode048
 **    ****   ******    PROGRAM STARTED BY                                luehrs
 ***** **    ** ** **   PROGRAM PROCESS ID                               1086976
  **** **  *******  **  PROGRAM STARTED IN /home/luehrs/PhD/Sodium_batteries/Sod
                                           ium-graphene-edge/Armchair_3/No_hydro
                                           gen

 CP2K| version string:                                       CP2K version 2023.1
 CP2K| source code revision number:                                  git:b888bd8
 CP2K| cp2kflags: omp libint fftw3 libxc elpa parallel scalapack spglib         
 CP2K| is freely available from                            https://www.cp2k.org/
 CP2K| Program compiled at                          Tue Jan 10 19:52:03 UTC 2023
 CP2K| Program compiled on                                            x86-ubc-01
 CP2K| Program compiled for                                Linux-x86_64-gfortran
 CP2K| Data directory path                                       /usr/share/cp2k
 CP2K| Input file name                                        input.armchair.inp

 GLOBAL| Force Environment number                                              1
 GLOBAL| Basis set file name                                      ./BASIS_MOLOPT
 GLOBAL| Potential file name                                    ./GTH_POTENTIALS
 GLOBAL| MM Potential file name                                     MM_POTENTIAL
 GLOBAL| Coordinate file name           ./graphene_armchair_no_hydrogen_relaxed.
 GLOBAL| Method name                                                        CP2K
 GLOBAL| Project name                                 graphene_armchair_BSSE_PBE
 GLOBAL| Run type                                                           BSSE
 GLOBAL| FFT library                                                       FFTW3
 GLOBAL| Diagonalization library                                            ELPA
 GLOBAL| DGEMM library                                                      BLAS
 GLOBAL| Minimum number of eigenvectors for ELPA usage                        16
 GLOBAL| Orthonormality check for eigenvectors                          DISABLED
 GLOBAL| Matrix multiplication library                                 ScaLAPACK
 GLOBAL| All-to-all communication in single precision                          F
 GLOBAL| FFTs using library dependent lengths                                  F
 GLOBAL| Grid backend                                                       AUTO
 GLOBAL| Global print level                                                  LOW
 GLOBAL| MPI I/O enabled                                                       T
 GLOBAL| Total number of message passing processes                            16
 GLOBAL| Number of threads for this process                                    1
 GLOBAL| This output is from process                                           0
 GLOBAL| Stack size for threads created by OpenMP (OMP_STACKSIZE)        default
 GLOBAL| CPU model name                Intel(R) Xeon(R) CPU E5-2630 v3 @ 2.40GHz

 MEMORY| system memory details [Kb]
 MEMORY|                        rank 0           min           max       average
 MEMORY| MemTotal             65828916      65828916      65828916      65828916
 MEMORY| MemFree              61847224      61847224      61847224      61847224
 MEMORY| Buffers                202928        202928        202928        202928
 MEMORY| Cached                1560960       1560956       1560960       1560956
 MEMORY| Slab                   314184        314184        314184        314184
 MEMORY| SReclaimable           143388        143388        143388        143388
 MEMORY| MemLikelyFree        63754500      63754496      63754500      63754496


 GENERATE|  Preliminary Number of Bonds generated:                             0
 GENERATE|  Achieved consistency in connectivity generation.

 *******************************************************************************
 *******************************************************************************
 **                                                                           **
 **     #####                         ##              ##                      **
 **    ##   ##            ##          ##              ##                      **
 **   ##     ##                       ##            ######                    **
 **   ##     ##  ##   ##  ##   #####  ##  ##   ####   ##    #####    #####    **
 **   ##     ##  ##   ##  ##  ##      ## ##   ##      ##   ##   ##  ##   ##   **
 **   ##  ## ##  ##   ##  ##  ##      ####     ###    ##   ######   ######    **
 **    ##  ###   ##   ##  ##  ##      ## ##      ##   ##   ##       ##        **
 **     #######   #####   ##   #####  ##  ##  ####    ##    #####   ##        **
 **           ##                                                    ##        **
 **                                                                           **
 **                                                ... make the atoms dance   **
 **                                                                           **
 **            Copyright (C) by CP2K developers group (2000-2022)             **
 **                      J. Chem. Phys. 152, 194103 (2020)                    **
 **                                                                           **
 *******************************************************************************


 TOTAL NUMBERS AND MAXIMUM NUMBERS

  Total number of            - Atomic kinds:                                   2
                             - Atoms:                                         43
                             - Shell sets:                                    43
                             - Shells:                                       215
                             - Primitive Cartesian functions:                217
                             - Cartesian basis functions:                    597
                             - Spherical basis functions:                    555

  Maximum angular momentum of- Orbital basis functions:                        2
                             - Local part of the GTH pseudopotential:          2
                             - Non-local part of the GTH pseudopotential:      1


 SCF PARAMETERS         Density guess:                                    ATOMIC
                        --------------------------------------------------------
                        max_scf:                                             100
                        max_scf_history:                                       0
                        max_diis:                                              4
                        --------------------------------------------------------
                        eps_scf:                                        3.00E-07
                        eps_scf_history:                                0.00E+00
                        eps_diis:                                       1.00E-01
                        eps_eigval:                                     1.00E-05
                        --------------------------------------------------------
                        level_shift [a.u.]:                             0.000000
                        added MOs                                       100  100
                        --------------------------------------------------------
                        Mixing method:                            BROYDEN_MIXING
                                                charge density mixing in g-space
                        --------------------------------------------------------
                        Smear method:                                FERMI_DIRAC
                        Electronic temperature [K]:                        300.0
                        Electronic temperature [a.u.]:                  9.50E-04
                        Accuracy threshold:                             1.00E-10
                        --------------------------------------------------------
                        Outer loop SCF in use 
                        No variables optimised in outer loop
                        eps_scf                                         1.00E-06
                        max_scf                                              150
                        DIIS optimization
                        DIIS buffer length                                     3
                        step_size                                       5.00E-01

 -------------------------------------------------------------------------------
 -                                                                             -
 -  BSSE CALCULATION         FRAGMENT CONF: 10        FRAGMENT SUBCONF: 10     -
 -                           CHARGE =     0           MULTIPLICITY =     0     -
 -                                                                             -
 -                 ATOM INDEX                              ATOM NAME           -
 -                 ----------                              ---------           -
 -                      1                                   C                  -
 -                      2                                   C                  -
 -                      3                                   C                  -
 -                      4                                   C                  -
 -                      5                                   C                  -
 -                      6                                   C                  -
 -                      7                                   C                  -
 -                      8                                   C                  -
 -                      9                                   C                  -
 -                     10                                   C                  -
 -                     11                                   C                  -
 -                     12                                   C                  -
 -                     13                                   C                  -
 -                     14                                   C                  -
 -                     15                                   C                  -
 -                     16                                   C                  -
 -                     17                                   C                  -
 -                     18                                   C                  -
 -                     19                                   C                  -
 -                     20                                   C                  -
 -                     21                                   C                  -
 -                     22                                   C                  -
 -                     23                                   C                  -
 -                     24                                   C                  -
 -                     25                                   C                  -
 -                     26                                   C                  -
 -                     27                                   C                  -
 -                     28                                   C                  -
 -                     29                                   C                  -
 -                     30                                   C                  -
 -                     31                                   C                  -
 -                     32                                   C                  -
 -                     33                                   C                  -
 -                     34                                   C                  -
 -                     35                                   C                  -
 -                     36                                   C                  -
 -                     37                                   C                  -
 -                     38                                   C                  -
 -                     39                                   C                  -
 -                     40                                   C                  -
 -                     41                                   C                  -
 -                     42                                   C                  -
 -------------------------------------------------------------------------------

 *******************************************************************************
 *******************************************************************************
 **                                                                           **
 **     #####                         ##              ##                      **
 **    ##   ##            ##          ##              ##                      **
 **   ##     ##                       ##            ######                    **
 **   ##     ##  ##   ##  ##   #####  ##  ##   ####   ##    #####    #####    **
 **   ##     ##  ##   ##  ##  ##      ## ##   ##      ##   ##   ##  ##   ##   **
 **   ##  ## ##  ##   ##  ##  ##      ####     ###    ##   ######   ######    **
 **    ##  ###   ##   ##  ##  ##      ## ##      ##   ##   ##       ##        **
 **     #######   #####   ##   #####  ##  ##  ####    ##    #####   ##        **
 **           ##                                                    ##        **
 **                                                                           **
 **                                                ... make the atoms dance   **
 **                                                                           **
 **            Copyright (C) by CP2K developers group (2000-2022)             **
 **                      J. Chem. Phys. 152, 194103 (2020)                    **
 **                                                                           **
 *******************************************************************************


 TOTAL NUMBERS AND MAXIMUM NUMBERS

  Total number of            - Atomic kinds:                                   1
                             - Atoms:                                         42
                             - Shell sets:                                    42
                             - Shells:                                       210
                             - Primitive Cartesian functions:                210
                             - Cartesian basis functions:                    588
                             - Spherical basis functions:                    546

  Maximum angular momentum of- Orbital basis functions:                        2
                             - Local part of the GTH pseudopotential:          2
                             - Non-local part of the GTH pseudopotential:      0


 SCF PARAMETERS         Density guess:                                    ATOMIC
                        --------------------------------------------------------
                        max_scf:                                             100
                        max_scf_history:                                       0
                        max_diis:                                              4
                        --------------------------------------------------------
                        eps_scf:                                        3.00E-07
                        eps_scf_history:                                0.00E+00
                        eps_diis:                                       1.00E-01
                        eps_eigval:                                     1.00E-05
                        --------------------------------------------------------
                        level_shift [a.u.]:                             0.000000
                        added MOs                                       100  100
                        --------------------------------------------------------
                        Mixing method:                            BROYDEN_MIXING
                                                charge density mixing in g-space
                        --------------------------------------------------------
                        Smear method:                                FERMI_DIRAC
                        Electronic temperature [K]:                        300.0
                        Electronic temperature [a.u.]:                  9.50E-04
                        Accuracy threshold:                             1.00E-10
                        --------------------------------------------------------
                        Outer loop SCF in use 
                        No variables optimised in outer loop
                        eps_scf                                         1.00E-06
                        max_scf                                              150
                        DIIS optimization
                        DIIS buffer length                                     3
                        step_size                                       5.00E-01

 Spin 1

 Number of electrons:                                                         84
 Number of occupied orbitals:                                                 84
 Number of molecular orbitals:                                               184

 Spin 2

 Number of electrons:                                                         84
 Number of occupied orbitals:                                                 84
 Number of molecular orbitals:                                               184

 Number of orbital functions:                                                546
 Number of independent orbital functions:                                    546

 Extrapolation method: initial_guess


 SCF WAVEFUNCTION OPTIMIZATION

  Step     Update method      Time    Convergence         Total energy    Change
  ------------------------------------------------------------------------------
     1 NoMix/Diag. 0.10E+00    4.0     0.46344580      -236.0468780821 -2.36E+02
     2 Broy./Diag. 0.10E+00    8.0     0.01145125      -229.5816586533  6.47E+00
     3 Broy./Diag. 0.10E+00    8.3     0.06408221      -234.0647280854 -4.48E+00
     4 Broy./Diag. 0.10E+00    8.4     0.00818046      -236.6592892425 -2.59E+00
     5 Broy./Diag. 0.10E+00    8.5     0.02626758      -237.3245396097 -6.65E-01
     6 Broy./Diag. 0.10E+00    8.7     0.00437339      -237.5900554442 -2.66E-01
     7 Broy./Diag. 0.10E+00    8.9     0.01355903      -237.6790779518 -8.90E-02
     8 Broy./Diag. 0.10E+00    9.1     0.00449609      -237.7590573258 -8.00E-02
     9 Broy./Diag. 0.10E+00    9.4     0.00480472      -237.7920872640 -3.30E-02
    10 Broy./Diag. 0.10E+00    9.7     0.00395468      -237.8298201258 -3.77E-02
    11 Broy./Diag. 0.10E+00   10.0     0.00581551      -237.8491344636 -1.93E-02
    12 Broy./Diag. 0.10E+00   10.4     0.00394402      -237.8811598267 -3.20E-02
    13 Broy./Diag. 0.10E+00   10.7     0.00161833      -237.8866194922 -5.46E-03
    14 Broy./Diag. 0.10E+00   11.2     0.00080378      -237.9067526513 -2.01E-02
    15 Broy./Diag. 0.10E+00   11.7     0.00083522      -237.9249369225 -1.82E-02
    16 Broy./Diag. 0.10E+00   17.6     0.00073701      -237.9391363548 -1.42E-02
    17 Broy./Diag. 0.10E+00   25.3     0.00082699      -237.9493674781 -1.02E-02
    18 Broy./Diag. 0.10E+00   13.1     0.00025738      -237.9567386941 -7.37E-03
    19 Broy./Diag. 0.10E+00   13.1     0.00021501      -237.9582733345 -1.53E-03
    20 Broy./Diag. 0.10E+00   13.0     0.00021033      -237.9602992263 -2.03E-03
    21 Broy./Diag. 0.10E+00   12.8     0.00029647      -237.9602883345  1.09E-05
    22 Broy./Diag. 0.10E+00   12.7     0.00019873      -237.9600547513  2.34E-04
    23 Broy./Diag. 0.10E+00   13.0     0.00006652      -237.9608154818 -7.61E-04
    24 Broy./Diag. 0.10E+00   13.0     0.00008288      -237.9631057825 -2.29E-03
    25 Broy./Diag. 0.10E+00   13.0     0.00007285      -237.9665562822 -3.45E-03
    26 Broy./Diag. 0.10E+00   12.9     0.00004184      -237.9690954154 -2.54E-03
    27 Broy./Diag. 0.10E+00   13.0     0.00005748      -237.9711097401 -2.01E-03
    28 Broy./Diag. 0.10E+00   12.9     0.00004516      -237.9724133240 -1.30E-03
    29 Broy./Diag. 0.10E+00   12.6     0.00002539      -237.9728147034 -4.01E-04
    30 Broy./Diag. 0.10E+00   13.0     0.00004457      -237.9728164804 -1.78E-06
    31 Broy./Diag. 0.10E+00   13.0     0.00003614      -237.9730088179 -1.92E-04
    32 Broy./Diag. 0.10E+00   13.0     0.00006702      -237.9730004698  8.35E-06
    33 Broy./Diag. 0.10E+00   13.0     0.00002655      -237.9731431238 -1.43E-04
    34 Broy./Diag. 0.10E+00   13.1     0.00010893      -237.9731209702  2.22E-05
    35 Broy./Diag. 0.10E+00   13.1     0.00001432      -237.9732220109 -1.01E-04
    36 Broy./Diag. 0.10E+00   12.9     0.00004808      -237.9730967782  1.25E-04
    37 Broy./Diag. 0.10E+00   13.9     0.00002577      -237.9730462805  5.05E-05
    38 Broy./Diag. 0.10E+00   14.0     0.00001926      -237.9730524403 -6.16E-06
    39 Broy./Diag. 0.10E+00   14.0     0.00000598      -237.9731070865 -5.46E-05
    40 Broy./Diag. 0.10E+00   14.1     0.00001527      -237.9732292015 -1.22E-04
    41 Broy./Diag. 0.10E+00   14.2     0.00000724      -237.9733665357 -1.37E-04
    42 Broy./Diag. 0.10E+00   14.1     0.00000381      -237.9734381056 -7.16E-05
    43 Broy./Diag. 0.10E+00   13.3     0.00000386      -237.9734764544 -3.83E-05
    44 Broy./Diag. 0.10E+00   14.2     0.00000756      -237.9735038995 -2.74E-05
    45 Broy./Diag. 0.10E+00   14.3     0.00000300      -237.9735193557 -1.55E-05
    46 Broy./Diag. 0.10E+00   14.2     0.00002789      -237.9735326453 -1.33E-05
    47 Broy./Diag. 0.10E+00   14.3     0.00001110      -237.9735514424 -1.88E-05
    48 Broy./Diag. 0.10E+00   14.3     0.00000618      -237.9735661328 -1.47E-05
    49 Broy./Diag. 0.10E+00   14.2     0.00002841      -237.9735782551 -1.21E-05
    50 Broy./Diag. 0.10E+00   13.3     0.00000495      -237.9735800108 -1.76E-06
    51 Broy./Diag. 0.10E+00   14.2     0.00003358      -237.9735741482  5.86E-06
    52 Broy./Diag. 0.10E+00   14.3     0.00004481      -237.9735679914  6.16E-06
    53 Broy./Diag. 0.10E+00   14.3     0.00003342      -237.9735704781 -2.49E-06
    54 Broy./Diag. 0.10E+00   14.3     0.00005228      -237.9735681977  2.28E-06
    55 Broy./Diag. 0.10E+00   14.3     0.00002146      -237.9735673647  8.33E-07
    56 Broy./Diag. 0.10E+00   14.1     0.00006431      -237.9735709815 -3.62E-06
    57 Broy./Diag. 0.10E+00   13.3     0.00001418      -237.9735760847 -5.10E-06
    58 Broy./Diag. 0.10E+00   14.3     0.00000910      -237.9735799593 -3.87E-06
    59 Broy./Diag. 0.10E+00   14.4     0.00001634      -237.9735799463  1.30E-08
    60 Broy./Diag. 0.10E+00   14.3     0.00001956      -237.9735761844  3.76E-06
    61 Broy./Diag. 0.10E+00   14.3     0.00000660      -237.9735762089 -2.46E-08
    62 Broy./Diag. 0.10E+00   14.3     0.00000255      -237.9735766639 -4.55E-07
    63 Broy./Diag. 0.10E+00   14.2     0.00000057      -237.9735767745 -1.11E-07
    64 Broy./Diag. 0.10E+00   13.4     0.00000168      -237.9735753464  1.43E-06
    65 Broy./Diag. 0.10E+00   14.3     0.00000050      -237.9735738290  1.52E-06
    66 Broy./Diag. 0.10E+00   14.2     0.00000110      -237.9735719900  1.84E-06
    67 Broy./Diag. 0.10E+00   14.2     0.00000332      -237.9735709919  9.98E-07
    68 Broy./Diag. 0.10E+00   14.2     0.00000361      -237.9735704708  5.21E-07
    69 Broy./Diag. 0.10E+00   14.2     0.00000464      -237.9735702385  2.32E-07
    70 Broy./Diag. 0.10E+00   14.2     0.00000156      -237.9735704690 -2.31E-07
    71 Broy./Diag. 0.10E+00   13.4     0.00000131      -237.9735706248 -1.56E-07
    72 Broy./Diag. 0.10E+00   14.5     0.00000159      -237.9735702590  3.66E-07
    73 Broy./Diag. 0.10E+00   14.6     0.00000039      -237.9735702376  2.14E-08
    74 Broy./Diag. 0.10E+00   14.6     0.00000149      -237.9735700838  1.54E-07
    75 Broy./Diag. 0.10E+00   14.5     0.00000036      -237.9735700360  4.78E-08
    76 Broy./Diag. 0.10E+00   14.6     0.00000139      -237.9735701033 -6.73E-08
    77 Broy./Diag. 0.10E+00   14.5     0.00000153      -237.9735693405  7.63E-07
    78 Broy./Diag. 0.10E+00   13.4     0.00000122      -237.9735693550 -1.45E-08
    79 Broy./Diag. 0.10E+00   14.5     0.00000013      -237.9735693108  4.42E-08

  *** SCF run converged in    79 steps ***


  Electronic density on regular grids:       -168.0000000000        0.0000000000
  Core density on regular grids:              167.9999999999       -0.0000000001
  Total charge density on r-space grids:       -0.0000000001
  Total charge density g-space grids:          -0.0000000001

  Overlap energy of the core charge distribution:               0.00000836868231
  Self energy of the core charge distribution:               -560.07033292413882
  Core Hamiltonian energy:                                    172.47486472640921
  Hartree energy:                                             221.70852868250290
  Exchange-correlation energy:                                -72.04537683951423
  Dispersion energy:                                           -0.03772957574913
  Electronic entropic energy:                                  -0.00353174897556
  Fermi energy:                                                -0.18327766905813

  Total energy:                                              -237.97356931077161

  outer SCF iter =    1 RMS gradient =   0.13E-06 energy =       -237.9735693108
  outer SCF loop converged in   1 iterations or   79 steps


  Integrated absolute spin density  :                               0.0017880921
  WARNING: S**2 computation does not yet treat fractional occupied orbitals

 *** WARNING in qs_loc_utils.F:1500 :: User requested the calculation of ***
 *** the localized wavefunction but the section LOCALIZE was not         ***
 *** specified. Localization will not be performed!                      ***


 -------------------------------------------------------------------------------
 -                                                                             -
 -  BSSE CALCULATION         FRAGMENT CONF: 01        FRAGMENT SUBCONF: 01     -
 -                           CHARGE =     0           MULTIPLICITY =     0     -
 -                                                                             -
 -                 ATOM INDEX                              ATOM NAME           -
 -                 ----------                              ---------           -
 -                     43                                   Na                 -
 -------------------------------------------------------------------------------

 *******************************************************************************
 *******************************************************************************
 **                                                                           **
 **     #####                         ##              ##                      **
 **    ##   ##            ##          ##              ##                      **
 **   ##     ##                       ##            ######                    **
 **   ##     ##  ##   ##  ##   #####  ##  ##   ####   ##    #####    #####    **
 **   ##     ##  ##   ##  ##  ##      ## ##   ##      ##   ##   ##  ##   ##   **
 **   ##  ## ##  ##   ##  ##  ##      ####     ###    ##   ######   ######    **
 **    ##  ###   ##   ##  ##  ##      ## ##      ##   ##   ##       ##        **
 **     #######   #####   ##   #####  ##  ##  ####    ##    #####   ##        **
 **           ##                                                    ##        **
 **                                                                           **
 **                                                ... make the atoms dance   **
 **                                                                           **
 **            Copyright (C) by CP2K developers group (2000-2022)             **
 **                      J. Chem. Phys. 152, 194103 (2020)                    **
 **                                                                           **
 *******************************************************************************

 *** WARNING in qs_environment.F:1470 :: More ADDED_MOs requested for beta ***
 *** spin than available.                                                  ***


 *** WARNING in qs_environment.F:1486 :: More added MOs requested than     ***
 *** available. The full set of unoccupied MOs will be used. Use           ***
 *** 'ADDED_MOS -1' to always use all available MOs and to get rid of this ***
 *** warning.                                                              ***



 TOTAL NUMBERS AND MAXIMUM NUMBERS

  Total number of            - Atomic kinds:                                   1
                             - Atoms:                                          1
                             - Shell sets:                                     1
                             - Shells:                                         5
                             - Primitive Cartesian functions:                  7
                             - Cartesian basis functions:                      9
                             - Spherical basis functions:                      9

  Maximum angular momentum of- Orbital basis functions:                        1
                             - Local part of the GTH pseudopotential:          2
                             - Non-local part of the GTH pseudopotential:      1


 SCF PARAMETERS         Density guess:                                    ATOMIC
                        --------------------------------------------------------
                        max_scf:                                             100
                        max_scf_history:                                       0
                        max_diis:                                              4
                        --------------------------------------------------------
                        eps_scf:                                        3.00E-07
                        eps_scf_history:                                0.00E+00
                        eps_diis:                                       1.00E-01
                        eps_eigval:                                     1.00E-05
                        --------------------------------------------------------
                        level_shift [a.u.]:                             0.000000
                        added MOs                                         4    5
                        --------------------------------------------------------
                        Mixing method:                            BROYDEN_MIXING
                                                charge density mixing in g-space
                        --------------------------------------------------------
                        Smear method:                                FERMI_DIRAC
                        Electronic temperature [K]:                        300.0
                        Electronic temperature [a.u.]:                  9.50E-04
                        Accuracy threshold:                             1.00E-10
                        --------------------------------------------------------
                        Outer loop SCF in use 
                        No variables optimised in outer loop
                        eps_scf                                         1.00E-06
                        max_scf                                              150
                        DIIS optimization
                        DIIS buffer length                                     3
                        step_size                                       5.00E-01

 Spin 1

 Number of electrons:                                                          5
 Number of occupied orbitals:                                                  5
 Number of molecular orbitals:                                                 9

 Spin 2

 Number of electrons:                                                          4
 Number of occupied orbitals:                                                  4
 Number of molecular orbitals:                                                 9

 Number of orbital functions:                                                  9
 Number of independent orbital functions:                                      9

 Extrapolation method: initial_guess


 SCF WAVEFUNCTION OPTIMIZATION

  Step     Update method      Time    Convergence         Total energy    Change
  ------------------------------------------------------------------------------
     1 NoMix/Diag. 0.10E+00    3.2     0.42045394       -47.1708060776 -4.72E+01
     2 Broy./Diag. 0.10E+00    7.5     0.00688692       -47.1304550658  4.04E-02
     3 Broy./Diag. 0.10E+00    7.8     0.02089444       -47.1716951552 -4.12E-02
     4 Broy./Diag. 0.10E+00    7.9     0.00033285       -47.1628703926  8.82E-03
     5 Broy./Diag. 0.10E+00    8.0     0.12602278       -47.1730905768 -1.02E-02
     6 Broy./Diag. 0.10E+00    8.1     0.01743080       -46.7615984311  4.11E-01
     7 Broy./Diag. 0.10E+00    8.3     0.00410969       -46.7489981647  1.26E-02
     8 Broy./Diag. 0.10E+00    8.5     0.01074052       -46.7614946170 -1.25E-02
     9 Broy./Diag. 0.10E+00    8.8     0.04223863       -46.8620329085 -1.01E-01
    10 Broy./Diag. 0.10E+00    9.1     0.01801466       -47.0178625814 -1.56E-01
    11 Broy./Diag. 0.10E+00    9.4     0.00573080       -47.0895867875 -7.17E-02
    12 Broy./Diag. 0.10E+00    9.8     0.01462953       -47.1128020199 -2.32E-02
    13 Broy./Diag. 0.10E+00   10.2     0.01941418       -47.1616820435 -4.89E-02
    14 Broy./Diag. 0.10E+00   10.6     0.00352491       -47.2189188665 -5.72E-02
    15 Broy./Diag. 0.10E+00   11.0     0.01271737       -47.1786151516  4.03E-02
    16 Broy./Diag. 0.10E+00   11.5     0.00881296       -47.1604074901  1.82E-02
    17 Broy./Diag. 0.10E+00   12.2     0.00235941       -47.1930972362 -3.27E-02
    18 Broy./Diag. 0.10E+00   12.1     0.00170753       -47.2074724337 -1.44E-02
    19 Broy./Diag. 0.10E+00   12.1     0.00781158       -47.2266425063 -1.92E-02
    20 Broy./Diag. 0.10E+00   12.1     0.00218328       -47.2711647930 -4.45E-02
    21 Broy./Diag. 0.10E+00   12.1     0.00049258       -47.2793098540 -8.15E-03
    22 Broy./Diag. 0.10E+00   12.1     0.00069397       -47.2869148143 -7.60E-03
    23 Broy./Diag. 0.10E+00   12.1     0.01254929       -47.2922558382 -5.34E-03
    24 Broy./Diag. 0.10E+00   12.1     0.00172991       -47.2233754156  6.89E-02
    25 Broy./Diag. 0.10E+00   12.1     0.00006455       -47.2154129215  7.96E-03
    26 Broy./Diag. 0.10E+00   12.1     0.00016389       -47.2185378291 -3.12E-03
    27 Broy./Diag. 0.10E+00   12.1     0.00235675       -47.2199809872 -1.44E-03
    28 Broy./Diag. 0.10E+00   12.1     0.00013492       -47.2288150523 -8.83E-03
    29 Broy./Diag. 0.10E+00   12.1     0.00016268       -47.2315692966 -2.75E-03
    30 Broy./Diag. 0.10E+00   12.1     0.00035828       -47.2333972741 -1.83E-03
    31 Broy./Diag. 0.10E+00   12.1     0.00076269       -47.2300463275  3.35E-03
    32 Broy./Diag. 0.10E+00   12.2     0.00154771       -47.2322679424 -2.22E-03
    33 Broy./Diag. 0.10E+00   12.1     0.00585543       -47.2392716576 -7.00E-03
    34 Broy./Diag. 0.10E+00   12.1     0.00200586       -47.2649408212 -2.57E-02
    35 Broy./Diag. 0.10E+00   12.1     0.00032625       -47.2726802244 -7.74E-03
    36 Broy./Diag. 0.10E+00   12.1     0.00038194       -47.2647399246  7.94E-03
    37 Broy./Diag. 0.10E+00   12.1     0.00043401       -47.2457003292  1.90E-02
    38 Broy./Diag. 0.10E+00   12.1     0.00064595       -47.2270158593  1.87E-02
    39 Broy./Diag. 0.10E+00   12.1     0.00037682       -47.2103963739  1.66E-02
    40 Broy./Diag. 0.10E+00   12.1     0.00023725       -47.1975177205  1.29E-02
    41 Broy./Diag. 0.10E+00   12.1     0.00012002       -47.1903484673  7.17E-03
    42 Broy./Diag. 0.10E+00   12.1     0.00011220       -47.1845671687  5.78E-03
    43 Broy./Diag. 0.10E+00   12.1     0.00014593       -47.1770419210  7.53E-03
    44 Broy./Diag. 0.10E+00   12.1     0.00010907       -47.1713293516  5.71E-03
    45 Broy./Diag. 0.10E+00   12.0     0.00007037       -47.1673338431  4.00E-03
    46 Broy./Diag. 0.10E+00   12.0     0.00003077       -47.1654393833  1.89E-03
    47 Broy./Diag. 0.10E+00   12.1     0.00003314       -47.1645181720  9.21E-04
    48 Broy./Diag. 0.10E+00   12.0     0.00000504       -47.1641431463  3.75E-04
    49 Broy./Diag. 0.10E+00   12.0     0.00001203       -47.1648473135 -7.04E-04
    50 Broy./Diag. 0.10E+00   11.9     0.00017189       -47.1645411634  3.06E-04
    51 Broy./Diag. 0.10E+00   12.0     0.00006146       -47.1649503712 -4.09E-04
    52 Broy./Diag. 0.10E+00   12.1     0.00004421       -47.1650412350 -9.09E-05
    53 Broy./Diag. 0.10E+00   12.0     0.00004353       -47.1651690819 -1.28E-04
    54 Broy./Diag. 0.10E+00   12.0     0.00002939       -47.1649731675  1.96E-04
    55 Broy./Diag. 0.10E+00   12.0     0.00008921       -47.1653220399 -3.49E-04
    56 Broy./Diag. 0.10E+00   12.0     0.00002759       -47.1652523744  6.97E-05
    57 Broy./Diag. 0.10E+00   12.0     0.00000673       -47.1650290136  2.23E-04
    58 Broy./Diag. 0.10E+00   12.0     0.00000390       -47.1647564360  2.73E-04
    59 Broy./Diag. 0.10E+00   12.0     0.00014221       -47.1646494080  1.07E-04
    60 Broy./Diag. 0.10E+00   12.0     0.00001564       -47.1649165582 -2.67E-04
    61 Broy./Diag. 0.10E+00   12.0     0.00008549       -47.1650253987 -1.09E-04
    62 Broy./Diag. 0.10E+00   12.1     0.00017180       -47.1654349369 -4.10E-04
    63 Broy./Diag. 0.10E+00   12.0     0.00001834       -47.1657528639 -3.18E-04
    64 Broy./Diag. 0.10E+00   12.0     0.00002798       -47.1656869824  6.59E-05
    65 Broy./Diag. 0.10E+00   12.1     0.00000679       -47.1652602785  4.27E-04
    66 Broy./Diag. 0.10E+00   12.0     0.00001687       -47.1650059174  2.54E-04
    67 Broy./Diag. 0.10E+00   12.0     0.00012545       -47.1649031502  1.03E-04
    68 Broy./Diag. 0.10E+00   12.0     0.00004600       -47.1651484439 -2.45E-04
    69 Broy./Diag. 0.10E+00   12.0     0.00003562       -47.1653052850 -1.57E-04
    70 Broy./Diag. 0.10E+00   12.0     0.00005461       -47.1651633803  1.42E-04
    71 Broy./Diag. 0.10E+00   12.0     0.00003618       -47.1653904305 -2.27E-04
    72 Broy./Diag. 0.10E+00   12.0     0.00005395       -47.1652147843  1.76E-04
    73 Broy./Diag. 0.10E+00   12.0     0.00001978       -47.1654158462 -2.01E-04
    74 Broy./Diag. 0.10E+00   12.0     0.00003586       -47.1652748194  1.41E-04
    75 Broy./Diag. 0.10E+00   12.0     0.00005804       -47.1651710233  1.04E-04
    76 Broy./Diag. 0.10E+00   12.0     0.00001204       -47.1654439976 -2.73E-04
    77 Broy./Diag. 0.10E+00   12.0     0.00002772       -47.1653800634  6.39E-05
    78 Broy./Diag. 0.10E+00   12.0     0.00003686       -47.1655032256 -1.23E-04
    79 Broy./Diag. 0.10E+00   12.1     0.00010727       -47.1654454559  5.78E-05
    80 Broy./Diag. 0.10E+00   12.1     0.00004600       -47.1650444162  4.01E-04
    81 Broy./Diag. 0.10E+00   12.1     0.00001106       -47.1652565892 -2.12E-04
    82 Broy./Diag. 0.10E+00   12.0     0.00000773       -47.1653402131 -8.36E-05
    83 Broy./Diag. 0.10E+00   12.0     0.00003358       -47.1652041688  1.36E-04
    84 Broy./Diag. 0.10E+00   12.0     0.00001213       -47.1651571973  4.70E-05
    85 Broy./Diag. 0.10E+00   12.0     0.00001026       -47.1652565306 -9.93E-05
    86 Broy./Diag. 0.10E+00   12.1     0.00000912       -47.1653228747 -6.63E-05
    87 Broy./Diag. 0.10E+00   12.1     0.00001895       -47.1653096825  1.32E-05
    88 Broy./Diag. 0.10E+00   12.0     0.00000766       -47.1653755333 -6.59E-05
    89 Broy./Diag. 0.10E+00   12.0     0.00000874       -47.1653968716 -2.13E-05
    90 Broy./Diag. 0.10E+00   12.0     0.00002611       -47.1654387982 -4.19E-05
    91 Broy./Diag. 0.10E+00   12.1     0.00001497       -47.1653718571  6.69E-05
    92 Broy./Diag. 0.10E+00   12.0     0.00010597       -47.1654178353 -4.60E-05
    93 Broy./Diag. 0.10E+00   12.0     0.00006312       -47.1650570113  3.61E-04
    94 Broy./Diag. 0.10E+00   12.1     0.00016980       -47.1647276088  3.29E-04
    95 Broy./Diag. 0.10E+00   12.1     0.00007520       -47.1653445229 -6.17E-04
    96 Broy./Diag. 0.10E+00   12.0     0.00004582       -47.1648508976  4.94E-04
    97 Broy./Diag. 0.10E+00   12.0     0.00009859       -47.1649677039 -1.17E-04
    98 Broy./Diag. 0.10E+00   12.0     0.00002959       -47.1647021107  2.66E-04
    99 Broy./Diag. 0.10E+00   12.0     0.00005491       -47.1646606758  4.14E-05
   100 Broy./Diag. 0.10E+00   12.0     0.00001343       -47.1648353642 -1.75E-04

  Leaving inner SCF loop after reaching   100 steps.


  Electronic density on regular grids:         -9.0000017909       -0.0000017909
  Core density on regular grids:                9.0000000000       -0.0000000000
  Total charge density on r-space grids:       -0.0000017909
  Total charge density g-space grids:          -0.0000017909

  Overlap energy of the core charge distribution:               0.00000000000000
  Self energy of the core charge distribution:                -96.60649019442629
  Core Hamiltonian energy:                                     29.76320855615798
  Hartree energy:                                              26.73360856029636
  Exchange-correlation energy:                                 -7.05515345170539
  Dispersion energy:                                           -0.00000883455364
  Electronic entropic energy:                                  -0.00000000000000
  Fermi energy:                                                -0.04802528127011

  Total energy:                                               -47.16483536423098

  outer SCF iter =    1 RMS gradient =   0.13E-04 energy =        -47.1648353642
     1 Broy./Diag. 0.10E+00   17.0     0.00039601       -47.1648713239 -3.60E-05
     2 Broy./Diag. 0.10E+00   12.0     0.00041704       -47.1664386215 -1.57E-03
     3 Broy./Diag. 0.10E+00   12.0     0.00014078       -47.1651035879  1.34E-03
     4 Broy./Diag. 0.10E+00   12.0     0.00009466       -47.1648209138  2.83E-04
     5 Broy./Diag. 0.10E+00   12.0     0.00004480       -47.1651515969 -3.31E-04
     6 Broy./Diag. 0.10E+00   12.0     0.00003870       -47.1650566139  9.50E-05
     7 Broy./Diag. 0.10E+00   12.0     0.00004360       -47.1651777873 -1.21E-04
     8 Broy./Diag. 0.10E+00   12.0     0.00000706       -47.1653388421 -1.61E-04
     9 Broy./Diag. 0.10E+00   12.0     0.00000138       -47.1653057162  3.31E-05
    10 Broy./Diag. 0.10E+00   12.0     0.00002046       -47.1652069977  9.87E-05
    11 Broy./Diag. 0.10E+00   12.0     0.00000581       -47.1650281308  1.79E-04
    12 Broy./Diag. 0.10E+00   12.0     0.00002385       -47.1649319791  9.62E-05
    13 Broy./Diag. 0.10E+00   12.0     0.00000191       -47.1649263384  5.64E-06
    14 Broy./Diag. 0.10E+00   12.0     0.00001021       -47.1648759104  5.04E-05
    15 Broy./Diag. 0.10E+00   12.0     0.00001605       -47.1648564378  1.95E-05
    16 Broy./Diag. 0.10E+00   12.0     0.00001355       -47.1648691676 -1.27E-05
    17 Broy./Diag. 0.10E+00   12.0     0.00000978       -47.1648129580  5.62E-05
    18 Broy./Diag. 0.10E+00   12.0     0.00001658       -47.1647860968  2.69E-05
    19 Broy./Diag. 0.10E+00   12.0     0.00001578       -47.1647542197  3.19E-05
    20 Broy./Diag. 0.10E+00   12.0     0.00006339       -47.1648213724 -6.72E-05
    21 Broy./Diag. 0.10E+00   12.0     0.00007370       -47.1650416854 -2.20E-04
    22 Broy./Diag. 0.10E+00   12.0     0.00001492       -47.1652930433 -2.51E-04
    23 Broy./Diag. 0.10E+00   12.0     0.00001363       -47.1653358566 -4.28E-05
    24 Broy./Diag. 0.10E+00   12.0     0.00003567       -47.1652697773  6.61E-05
    25 Broy./Diag. 0.10E+00   12.0     0.00001012       -47.1651181587  1.52E-04
    26 Broy./Diag. 0.10E+00   12.0     0.00000498       -47.1650672913  5.09E-05
    27 Broy./Diag. 0.10E+00   12.0     0.00000585       -47.1650869510 -1.97E-05
    28 Broy./Diag. 0.10E+00   12.0     0.00003860       -47.1651119013 -2.50E-05
    29 Broy./Diag. 0.10E+00   12.1     0.00001586       -47.1649579377  1.54E-04
    30 Broy./Diag. 0.10E+00   12.0     0.00000663       -47.1649128334  4.51E-05
    31 Broy./Diag. 0.10E+00   12.1     0.00000592       -47.1648890426  2.38E-05
    32 Broy./Diag. 0.10E+00   12.0     0.00000582       -47.1648887222  3.20E-07
    33 Broy./Diag. 0.10E+00   12.0     0.00004467       -47.1649020835 -1.34E-05
    34 Broy./Diag. 0.10E+00   12.0     0.00004559       -47.1648314563  7.06E-05
    35 Broy./Diag. 0.10E+00   12.0     0.00004340       -47.1646695634  1.62E-04
    36 Broy./Diag. 0.10E+00   12.0     0.00004509       -47.1648501645 -1.81E-04
    37 Broy./Diag. 0.10E+00   12.0     0.00000517       -47.1650147528 -1.65E-04
    38 Broy./Diag. 0.10E+00   12.0     0.00000110       -47.1650456063 -3.09E-05
    39 Broy./Diag. 0.10E+00   12.0     0.00000164       -47.1650470092 -1.40E-06
    40 Broy./Diag. 0.10E+00   12.0     0.00001457       -47.1650157080  3.13E-05
    41 Broy./Diag. 0.10E+00   12.0     0.00002352       -47.1650678760 -5.22E-05
    42 Broy./Diag. 0.10E+00   12.0     0.00001916       -47.1651460543 -7.82E-05
    43 Broy./Diag. 0.10E+00   12.0     0.00002922       -47.1652306230 -8.46E-05
    44 Broy./Diag. 0.10E+00   12.0     0.00002097       -47.1653473510 -1.17E-04
    45 Broy./Diag. 0.10E+00   11.9     0.00001048       -47.1654083954 -6.10E-05
    46 Broy./Diag. 0.10E+00   11.9     0.00001936       -47.1654619229 -5.35E-05
    47 Broy./Diag. 0.10E+00   11.8     0.00002154       -47.1655649925 -1.03E-04
    48 Broy./Diag. 0.10E+00   11.8     0.00001245       -47.1657229743 -1.58E-04
    49 Broy./Diag. 0.10E+00   11.8     0.00000419       -47.1657968282 -7.39E-05
    50 Broy./Diag. 0.10E+00   11.8     0.00000059       -47.1658061305 -9.30E-06
    51 Broy./Diag. 0.10E+00   11.7     0.00000051       -47.1657962259  9.90E-06
    52 Broy./Diag. 0.10E+00   11.7     0.00000058       -47.1658138262 -1.76E-05
    53 Broy./Diag. 0.10E+00   11.7     0.00000298       -47.1656817061  1.32E-04
    54 Broy./Diag. 0.10E+00   11.7     0.00000172       -47.1655812842  1.00E-04
    55 Broy./Diag. 0.10E+00   11.7     0.00000171       -47.1656000779 -1.88E-05
    56 Broy./Diag. 0.10E+00   11.7     0.00000360       -47.1654430603  1.57E-04
    57 Broy./Diag. 0.10E+00   11.7     0.00000203       -47.1653198307  1.23E-04
    58 Broy./Diag. 0.10E+00   11.7     0.00000141       -47.1652344069  8.54E-05
    59 Broy./Diag. 0.10E+00   11.7     0.00000103       -47.1651719635  6.24E-05
    60 Broy./Diag. 0.10E+00   11.7     0.00000158       -47.1650848025  8.72E-05
    61 Broy./Diag. 0.10E+00   11.8     0.00000071       -47.1650376202  4.72E-05
    62 Broy./Diag. 0.10E+00   11.7     0.00000150       -47.1649828661  5.48E-05
    63 Broy./Diag. 0.10E+00   11.8     0.00000143       -47.1649324191  5.04E-05
    64 Broy./Diag. 0.10E+00   11.8     0.00000076       -47.1649052378  2.72E-05
    65 Broy./Diag. 0.10E+00   11.7     0.00000117       -47.1648715989  3.36E-05
    66 Broy./Diag. 0.10E+00   11.7     0.00000017       -47.1648720156 -4.17E-07

  *** SCF run converged in    66 steps ***


  Electronic density on regular grids:         -9.0000017908       -0.0000017908
  Core density on regular grids:                9.0000000000       -0.0000000000
  Total charge density on r-space grids:       -0.0000017908
  Total charge density g-space grids:          -0.0000017908

  Overlap energy of the core charge distribution:               0.00000000000000
  Self energy of the core charge distribution:                -96.60649019442629
  Core Hamiltonian energy:                                     29.76201623597352
  Hartree energy:                                              26.73455998812430
  Exchange-correlation energy:                                 -7.05494921070126
  Dispersion energy:                                           -0.00000883455364
  Electronic entropic energy:                                  -0.00000000000000
  Fermi energy:                                                -0.06756963385707

  Total energy:                                               -47.16487201558336

  outer SCF iter =    2 RMS gradient =   0.17E-06 energy =        -47.1648720156
  outer SCF loop converged in   2 iterations or  166 steps


  Integrated absolute spin density  :                               1.0000456562
  WARNING: S**2 computation does not yet treat fractional occupied orbitals

 *** WARNING in qs_loc_utils.F:1500 :: User requested the calculation of ***
 *** the localized wavefunction but the section LOCALIZE was not         ***
 *** specified. Localization will not be performed!                      ***


 -------------------------------------------------------------------------------
 -                                                                             -
 -  BSSE CALCULATION         FRAGMENT CONF: 11        FRAGMENT SUBCONF: 10     -
 -                           CHARGE =     0           MULTIPLICITY =     0     -
 -                                                                             -
 -                 ATOM INDEX                              ATOM NAME           -
 -                 ----------                              ---------           -
 -                      1                                   C                  -
 -                      2                                   C                  -
 -                      3                                   C                  -
 -                      4                                   C                  -
 -                      5                                   C                  -
 -                      6                                   C                  -
 -                      7                                   C                  -
 -                      8                                   C                  -
 -                      9                                   C                  -
 -                     10                                   C                  -
 -                     11                                   C                  -
 -                     12                                   C                  -
 -                     13                                   C                  -
 -                     14                                   C                  -
 -                     15                                   C                  -
 -                     16                                   C                  -
 -                     17                                   C                  -
 -                     18                                   C                  -
 -                     19                                   C                  -
 -                     20                                   C                  -
 -                     21                                   C                  -
 -                     22                                   C                  -
 -                     23                                   C                  -
 -                     24                                   C                  -
 -                     25                                   C                  -
 -                     26                                   C                  -
 -                     27                                   C                  -
 -                     28                                   C                  -
 -                     29                                   C                  -
 -                     30                                   C                  -
 -                     31                                   C                  -
 -                     32                                   C                  -
 -                     33                                   C                  -
 -                     34                                   C                  -
 -                     35                                   C                  -
 -                     36                                   C                  -
 -                     37                                   C                  -
 -                     38                                   C                  -
 -                     39                                   C                  -
 -                     40                                   C                  -
 -                     41                                   C                  -
 -                     42                                   C                  -
 -                     43                                   Na_ghost           -
 -------------------------------------------------------------------------------

 *******************************************************************************
 *******************************************************************************
 **                                                                           **
 **     #####                         ##              ##                      **
 **    ##   ##            ##          ##              ##                      **
 **   ##     ##                       ##            ######                    **
 **   ##     ##  ##   ##  ##   #####  ##  ##   ####   ##    #####    #####    **
 **   ##     ##  ##   ##  ##  ##      ## ##   ##      ##   ##   ##  ##   ##   **
 **   ##  ## ##  ##   ##  ##  ##      ####     ###    ##   ######   ######    **
 **    ##  ###   ##   ##  ##  ##      ## ##      ##   ##   ##       ##        **
 **     #######   #####   ##   #####  ##  ##  ####    ##    #####   ##        **
 **           ##                                                    ##        **
 **                                                                           **
 **                                                ... make the atoms dance   **
 **                                                                           **
 **            Copyright (C) by CP2K developers group (2000-2022)             **
 **                      J. Chem. Phys. 152, 194103 (2020)                    **
 **                                                                           **
 *******************************************************************************


 TOTAL NUMBERS AND MAXIMUM NUMBERS

  Total number of            - Atomic kinds:                                   2
                             - Atoms:                                         43
                             - Shell sets:                                    43
                             - Shells:                                       215
                             - Primitive Cartesian functions:                217
                             - Cartesian basis functions:                    597
                             - Spherical basis functions:                    555

  Maximum angular momentum of- Orbital basis functions:                        2
                             - Local part of the GTH pseudopotential:          2
                             - Non-local part of the GTH pseudopotential:      0


 SCF PARAMETERS         Density guess:                                    ATOMIC
                        --------------------------------------------------------
                        max_scf:                                             100
                        max_scf_history:                                       0
                        max_diis:                                              4
                        --------------------------------------------------------
                        eps_scf:                                        3.00E-07
                        eps_scf_history:                                0.00E+00
                        eps_diis:                                       1.00E-01
                        eps_eigval:                                     1.00E-05
                        --------------------------------------------------------
                        level_shift [a.u.]:                             0.000000
                        added MOs                                       100  100
                        --------------------------------------------------------
                        Mixing method:                            BROYDEN_MIXING
                                                charge density mixing in g-space
                        --------------------------------------------------------
                        Smear method:                                FERMI_DIRAC
                        Electronic temperature [K]:                        300.0
                        Electronic temperature [a.u.]:                  9.50E-04
                        Accuracy threshold:                             1.00E-10
                        --------------------------------------------------------
                        Outer loop SCF in use 
                        No variables optimised in outer loop
                        eps_scf                                         1.00E-06
                        max_scf                                              150
                        DIIS optimization
                        DIIS buffer length                                     3
                        step_size                                       5.00E-01

 Spin 1

 Number of electrons:                                                         84
 Number of occupied orbitals:                                                 84
 Number of molecular orbitals:                                               184

 Spin 2

 Number of electrons:                                                         84
 Number of occupied orbitals:                                                 84
 Number of molecular orbitals:                                               184

 Number of orbital functions:                                                555
 Number of independent orbital functions:                                    555

 Extrapolation method: initial_guess


 SCF WAVEFUNCTION OPTIMIZATION

  Step     Update method      Time    Convergence         Total energy    Change
  ------------------------------------------------------------------------------
     1 NoMix/Diag. 0.10E+00    4.0     0.46361000      -236.0468780821 -2.36E+02
     2 Broy./Diag. 0.10E+00    8.1     0.01180606      -229.6144174039  6.43E+00
     3 Broy./Diag. 0.10E+00    8.3     0.06102082      -234.0709120225 -4.46E+00
     4 Broy./Diag. 0.10E+00    8.4     0.00957847      -236.6827611573 -2.61E+00
     5 Broy./Diag. 0.10E+00    8.6     0.02446104      -237.3416274089 -6.59E-01
     6 Broy./Diag. 0.10E+00    8.7     0.00569893      -237.6008693880 -2.59E-01
     7 Broy./Diag. 0.10E+00    8.9     0.01253665      -237.6958834893 -9.50E-02
     8 Broy./Diag. 0.10E+00    9.1     0.00527420      -237.7729368297 -7.71E-02
     9 Broy./Diag. 0.10E+00    9.4     0.00328512      -237.8065453345 -3.36E-02
    10 Broy./Diag. 0.10E+00    9.7     0.00390793      -237.8368337195 -3.03E-02
    11 Broy./Diag. 0.10E+00   10.0     0.00580612      -237.8733594202 -3.65E-02
    12 Broy./Diag. 0.10E+00   10.4     0.00352204      -237.8834005366 -1.00E-02
    13 Broy./Diag. 0.10E+00   10.8     0.00121302      -237.9003520905 -1.70E-02
    14 Broy./Diag. 0.10E+00   11.2     0.00135076      -237.9153134984 -1.50E-02
    15 Broy./Diag. 0.10E+00   11.6     0.00032123      -237.9347239341 -1.94E-02
    16 Broy./Diag. 0.10E+00   12.1     0.00107959      -237.9472306745 -1.25E-02
    17 Broy./Diag. 0.10E+00   12.7     0.00052099      -237.9565979296 -9.37E-03
    18 Broy./Diag. 0.10E+00   12.7     0.00057754      -237.9624341028 -5.84E-03
    19 Broy./Diag. 0.10E+00   12.7     0.00022311      -237.9647086494 -2.27E-03
    20 Broy./Diag. 0.10E+00   12.7     0.00015436      -237.9654570565 -7.48E-04
    21 Broy./Diag. 0.10E+00   12.7     0.00031724      -237.9655934927 -1.36E-04
    22 Broy./Diag. 0.10E+00   12.6     0.00019610      -237.9645061830  1.09E-03
    23 Broy./Diag. 0.10E+00   12.7     0.00007638      -237.9649274627 -4.21E-04
    24 Broy./Diag. 0.10E+00   12.6     0.00009236      -237.9669910431 -2.06E-03
    25 Broy./Diag. 0.10E+00   12.6     0.00006604      -237.9703320273 -3.34E-03
    26 Broy./Diag. 0.10E+00   12.6     0.00005473      -237.9729504918 -2.62E-03
    27 Broy./Diag. 0.10E+00   12.6     0.00005170      -237.9749217494 -1.97E-03
    28 Broy./Diag. 0.10E+00   12.6     0.00004616      -237.9759743136 -1.05E-03
    29 Broy./Diag. 0.10E+00   12.6     0.00003857      -237.9762349175 -2.61E-04
    30 Broy./Diag. 0.10E+00   12.7     0.00005649      -237.9762112961  2.36E-05
    31 Broy./Diag. 0.10E+00   12.7     0.00002941      -237.9760766192  1.35E-04
    32 Broy./Diag. 0.10E+00   12.8     0.00002648      -237.9760239422  5.27E-05
    33 Broy./Diag. 0.10E+00   12.8     0.00003543      -237.9760772265 -5.33E-05
    34 Broy./Diag. 0.10E+00   12.9     0.00005188      -237.9762218774 -1.45E-04
    35 Broy./Diag. 0.10E+00   13.0     0.00007635      -237.9762956295 -7.38E-05
    36 Broy./Diag. 0.10E+00   13.1     0.00005901      -237.9762960215 -3.92E-07
    37 Broy./Diag. 0.10E+00   13.1     0.00005562      -237.9763244994 -2.85E-05
    38 Broy./Diag. 0.10E+00   13.1     0.00006711      -237.9763897035 -6.52E-05
    39 Broy./Diag. 0.10E+00   13.1     0.00002637      -237.9764789855 -8.93E-05
    40 Broy./Diag. 0.10E+00   13.1     0.00002966      -237.9765772865 -9.83E-05
    41 Broy./Diag. 0.10E+00   13.2     0.00000645      -237.9766498932 -7.26E-05
    42 Broy./Diag. 0.10E+00   13.1     0.00000651      -237.9766981317 -4.82E-05
    43 Broy./Diag. 0.10E+00   13.2     0.00001155      -237.9767264679 -2.83E-05
    44 Broy./Diag. 0.10E+00   13.2     0.00001620      -237.9767406111 -1.41E-05
    45 Broy./Diag. 0.10E+00   13.2     0.00006583      -237.9767145148  2.61E-05
    46 Broy./Diag. 0.10E+00   13.2     0.00003122      -237.9766945388  2.00E-05
    47 Broy./Diag. 0.10E+00   13.2     0.00002743      -237.9766681607  2.64E-05
    48 Broy./Diag. 0.10E+00   13.2     0.00001793      -237.9766541552  1.40E-05
    49 Broy./Diag. 0.10E+00   13.2     0.00001157      -237.9766469695  7.19E-06
    50 Broy./Diag. 0.10E+00   13.2     0.00001053      -237.9766515101 -4.54E-06
    51 Broy./Diag. 0.10E+00   13.3     0.00000509      -237.9766586645 -7.15E-06
    52 Broy./Diag. 0.10E+00   13.2     0.00000911      -237.9766649677 -6.30E-06
    53 Broy./Diag. 0.10E+00   13.2     0.00001198      -237.9766720774 -7.11E-06
    54 Broy./Diag. 0.10E+00   13.2     0.00000773      -237.9766737458 -1.67E-06
    55 Broy./Diag. 0.10E+00   13.3     0.00001365      -237.9766701953  3.55E-06
    56 Broy./Diag. 0.10E+00   13.2     0.00000364      -237.9766688784  1.32E-06
    57 Broy./Diag. 0.10E+00   13.2     0.00002667      -237.9766692011 -3.23E-07
    58 Broy./Diag. 0.10E+00   13.2     0.00000721      -237.9766682780  9.23E-07
    59 Broy./Diag. 0.10E+00   13.2     0.00002916      -237.9766625124  5.77E-06
    60 Broy./Diag. 0.10E+00   13.3     0.00000765      -237.9766562496  6.26E-06
    61 Broy./Diag. 0.10E+00   13.3     0.00000841      -237.9766539717  2.28E-06
    62 Broy./Diag. 0.10E+00   13.3     0.00000547      -237.9766529453  1.03E-06
    63 Broy./Diag. 0.10E+00   13.2     0.00000993      -237.9766488197  4.13E-06
    64 Broy./Diag. 0.10E+00   13.2     0.00000396      -237.9766467618  2.06E-06
    65 Broy./Diag. 0.10E+00   13.3     0.00000237      -237.9766458706  8.91E-07
    66 Broy./Diag. 0.10E+00   13.3     0.00000241      -237.9766454781  3.92E-07
    67 Broy./Diag. 0.10E+00   13.3     0.00000446      -237.9766449200  5.58E-07
    68 Broy./Diag. 0.10E+00   13.3     0.00000323      -237.9766447768  1.43E-07
    69 Broy./Diag. 0.10E+00   13.3     0.00000208      -237.9766447569  1.99E-08
    70 Broy./Diag. 0.10E+00   13.3     0.00000076      -237.9766450477 -2.91E-07
    71 Broy./Diag. 0.10E+00   13.2     0.00000147      -237.9766452488 -2.01E-07
    72 Broy./Diag. 0.10E+00   13.3     0.00000083      -237.9766454720 -2.23E-07
    73 Broy./Diag. 0.10E+00   13.2     0.00000276      -237.9766454661  5.86E-09
    74 Broy./Diag. 0.10E+00   13.2     0.00000109      -237.9766457940 -3.28E-07
    75 Broy./Diag. 0.10E+00   13.3     0.00000237      -237.9766454052  3.89E-07
    76 Broy./Diag. 0.10E+00   13.3     0.00000568      -237.9766446814  7.24E-07
    77 Broy./Diag. 0.10E+00   13.3     0.00000083      -237.9766444725  2.09E-07
    78 Broy./Diag. 0.10E+00   13.2     0.00000379      -237.9766455372 -1.06E-06
    79 Broy./Diag. 0.10E+00   13.3     0.00000482      -237.9766442560  1.28E-06
    80 Broy./Diag. 0.10E+00   13.3     0.00000275      -237.9766441439  1.12E-07
    81 Broy./Diag. 0.10E+00   13.3     0.00000023      -237.9766441591 -1.52E-08

  *** SCF run converged in    81 steps ***


  Electronic density on regular grids:       -168.0000000000        0.0000000000
  Core density on regular grids:              167.9999999999       -0.0000000001
  Total charge density on r-space grids:       -0.0000000001
  Total charge density g-space grids:          -0.0000000001

  Overlap energy of the core charge distribution:               0.00000836868231
  Self energy of the core charge distribution:               -560.07033292413882
  Core Hamiltonian energy:                                    172.45108094147190
  Hartree energy:                                             221.72074939010275
  Exchange-correlation energy:                                -72.03689635191404
  Dispersion energy:                                           -0.03772957574913
  Electronic entropic energy:                                  -0.00352400760351
  Fermi energy:                                                -0.18411889382542

  Total energy:                                              -237.97664415914932

  outer SCF iter =    1 RMS gradient =   0.23E-06 energy =       -237.9766441591
  outer SCF loop converged in   1 iterations or   81 steps


  Integrated absolute spin density  :                               0.0029628464
  WARNING: S**2 computation does not yet treat fractional occupied orbitals

 *** WARNING in qs_loc_utils.F:1500 :: User requested the calculation of ***
 *** the localized wavefunction but the section LOCALIZE was not         ***
 *** specified. Localization will not be performed!                      ***


 -------------------------------------------------------------------------------
 -                                                                             -
 -  BSSE CALCULATION         FRAGMENT CONF: 11        FRAGMENT SUBCONF: 01     -
 -                           CHARGE =     0           MULTIPLICITY =     0     -
 -                                                                             -
 -                 ATOM INDEX                              ATOM NAME           -
 -                 ----------                              ---------           -
 -                      1                                   C_ghost            -
 -                      2                                   C_ghost            -
 -                      3                                   C_ghost            -
 -                      4                                   C_ghost            -
 -                      5                                   C_ghost            -
 -                      6                                   C_ghost            -
 -                      7                                   C_ghost            -
 -                      8                                   C_ghost            -
 -                      9                                   C_ghost            -
 -                     10                                   C_ghost            -
 -                     11                                   C_ghost            -
 -                     12                                   C_ghost            -
 -                     13                                   C_ghost            -
 -                     14                                   C_ghost            -
 -                     15                                   C_ghost            -
 -                     16                                   C_ghost            -
 -                     17                                   C_ghost            -
 -                     18                                   C_ghost            -
 -                     19                                   C_ghost            -
 -                     20                                   C_ghost            -
 -                     21                                   C_ghost            -
 -                     22                                   C_ghost            -
 -                     23                                   C_ghost            -
 -                     24                                   C_ghost            -
 -                     25                                   C_ghost            -
 -                     26                                   C_ghost            -
 -                     27                                   C_ghost            -
 -                     28                                   C_ghost            -
 -                     29                                   C_ghost            -
 -                     30                                   C_ghost            -
 -                     31                                   C_ghost            -
 -                     32                                   C_ghost            -
 -                     33                                   C_ghost            -
 -                     34                                   C_ghost            -
 -                     35                                   C_ghost            -
 -                     36                                   C_ghost            -
 -                     37                                   C_ghost            -
 -                     38                                   C_ghost            -
 -                     39                                   C_ghost            -
 -                     40                                   C_ghost            -
 -                     41                                   C_ghost            -
 -                     42                                   C_ghost            -
 -                     43                                   Na                 -
 -------------------------------------------------------------------------------

 *******************************************************************************
 *******************************************************************************
 **                                                                           **
 **     #####                         ##              ##                      **
 **    ##   ##            ##          ##              ##                      **
 **   ##     ##                       ##            ######                    **
 **   ##     ##  ##   ##  ##   #####  ##  ##   ####   ##    #####    #####    **
 **   ##     ##  ##   ##  ##  ##      ## ##   ##      ##   ##   ##  ##   ##   **
 **   ##  ## ##  ##   ##  ##  ##      ####     ###    ##   ######   ######    **
 **    ##  ###   ##   ##  ##  ##      ## ##      ##   ##   ##       ##        **
 **     #######   #####   ##   #####  ##  ##  ####    ##    #####   ##        **
 **           ##                                                    ##        **
 **                                                                           **
 **                                                ... make the atoms dance   **
 **                                                                           **
 **            Copyright (C) by CP2K developers group (2000-2022)             **
 **                      J. Chem. Phys. 152, 194103 (2020)                    **
 **                                                                           **
 *******************************************************************************


 TOTAL NUMBERS AND MAXIMUM NUMBERS

  Total number of            - Atomic kinds:                                   2
                             - Atoms:                                         43
                             - Shell sets:                                    43
                             - Shells:                                       215
                             - Primitive Cartesian functions:                217
                             - Cartesian basis functions:                    597
                             - Spherical basis functions:                    555

  Maximum angular momentum of- Orbital basis functions:                        2
                             - Local part of the GTH pseudopotential:          2
                             - Non-local part of the GTH pseudopotential:      1


 SCF PARAMETERS         Density guess:                                    ATOMIC
                        --------------------------------------------------------
                        max_scf:                                             100
                        max_scf_history:                                       0
                        max_diis:                                              4
                        --------------------------------------------------------
                        eps_scf:                                        3.00E-07
                        eps_scf_history:                                0.00E+00
                        eps_diis:                                       1.00E-01
                        eps_eigval:                                     1.00E-05
                        --------------------------------------------------------
                        level_shift [a.u.]:                             0.000000
                        added MOs                                       100  100
                        --------------------------------------------------------
                        Mixing method:                            BROYDEN_MIXING
                                                charge density mixing in g-space
                        --------------------------------------------------------
                        Smear method:                                FERMI_DIRAC
                        Electronic temperature [K]:                        300.0
                        Electronic temperature [a.u.]:                  9.50E-04
                        Accuracy threshold:                             1.00E-10
                        --------------------------------------------------------
                        Outer loop SCF in use 
                        No variables optimised in outer loop
                        eps_scf                                         1.00E-06
                        max_scf                                              150
                        DIIS optimization
                        DIIS buffer length                                     3
                        step_size                                       5.00E-01

 Spin 1

 Number of electrons:                                                          5
 Number of occupied orbitals:                                                  5
 Number of molecular orbitals:                                               105

 Spin 2

 Number of electrons:                                                          4
 Number of occupied orbitals:                                                  4
 Number of molecular orbitals:                                               104

 Number of orbital functions:                                                555
 Number of independent orbital functions:                                    555

 Extrapolation method: initial_guess


 SCF WAVEFUNCTION OPTIMIZATION

  Step     Update method      Time    Convergence         Total energy    Change
  ------------------------------------------------------------------------------
     1 NoMix/Diag. 0.10E+00    3.9     0.41828389       -47.1708060776 -4.72E+01
     2 Broy./Diag. 0.10E+00    8.8     0.00711624       -47.1327104706  3.81E-02
     3 Broy./Diag. 0.10E+00    9.1     0.02458643       -47.1746470496 -4.19E-02
     4 Broy./Diag. 0.10E+00    9.2     0.00055360       -47.1650309465  9.62E-03
     5 Broy./Diag. 0.10E+00    9.3     0.14391765       -47.1773228665 -1.23E-02
     6 Broy./Diag. 0.10E+00    9.4     0.02530685       -46.6915779134  4.86E-01
     7 Broy./Diag. 0.10E+00    9.6     0.00704379       -46.6406972446  5.09E-02
     8 Broy./Diag. 0.10E+00    9.8     0.00813416       -46.6500300930 -9.33E-03
     9 Broy./Diag. 0.10E+00   10.1     0.04042935       -46.6773926764 -2.74E-02
    10 Broy./Diag. 0.10E+00   10.4     0.01874592       -46.7700969700 -9.27E-02
    11 Broy./Diag. 0.10E+00   10.7     0.01044473       -46.8231053651 -5.30E-02
    12 Broy./Diag. 0.10E+00   11.0     0.02807164       -46.8965465898 -7.34E-02
    13 Broy./Diag. 0.10E+00   11.4     0.02665292       -47.0159007420 -1.19E-01
    14 Broy./Diag. 0.10E+00   11.8     0.00451545       -47.1094541844 -9.36E-02
    15 Broy./Diag. 0.10E+00   12.3     0.01476380       -47.0944617842  1.50E-02
    16 Broy./Diag. 0.10E+00   12.8     0.01506178       -47.1649393719 -7.05E-02
    17 Broy./Diag. 0.10E+00   13.3     0.00100796       -47.2284302049 -6.35E-02
    18 Broy./Diag. 0.10E+00   13.3     0.00080368       -47.2263314578  2.10E-03
    19 Broy./Diag. 0.10E+00   13.3     0.00980794       -47.2308118956 -4.48E-03
    20 Broy./Diag. 0.10E+00   13.3     0.00266024       -47.2764243739 -4.56E-02
    21 Broy./Diag. 0.10E+00   13.2     0.00011483       -47.2898390908 -1.34E-02
[...]
    63 Broy./Diag. 0.10E+00   13.2     0.01830990      -284.9278940369 -3.40E-02
    64 Broy./Diag. 0.10E+00   13.3     0.00882149      -284.9585317065 -3.06E-02
    65 Broy./Diag. 0.10E+00   13.3     0.02070559      -284.9595899942 -1.06E-03
    66 Broy./Diag. 0.10E+00   13.3     0.04876070      -284.9224236269  3.72E-02
    67 Broy./Diag. 0.10E+00   13.3     0.04233884      -284.9654559794 -4.30E-02
    68 Broy./Diag. 0.10E+00   13.3     0.05163232      -284.9081320120  5.73E-02
    69 Broy./Diag. 0.10E+00   13.2     0.04099175      -284.9480328902 -3.99E-02
    70 Broy./Diag. 0.10E+00   13.2     0.11634216      -284.8764472783  7.16E-02
    71 Broy./Diag. 0.10E+00   13.3     0.02855058      -285.0371934703 -1.61E-01
    72 Broy./Diag. 0.10E+00   13.3     0.01415080      -285.0710324913 -3.38E-02
    73 Broy./Diag. 0.10E+00   13.3     0.07764994      -285.0567074717  1.43E-02
    74 Broy./Diag. 0.10E+00   13.3     0.02388604      -285.0018725598  5.48E-02
    75 Broy./Diag. 0.10E+00   13.2     0.03223906      -285.0064877161 -4.62E-03
    76 Broy./Diag. 0.10E+00   13.2     0.01990956      -285.0052714169  1.22E-03
    77 Broy./Diag. 0.10E+00   13.2     0.01017160      -285.0087421674 -3.47E-03
    78 Broy./Diag. 0.10E+00   13.3     0.00702038      -285.0061033625  2.64E-03
    79 Broy./Diag. 0.10E+00   13.3     0.00843902      -285.0094839301 -3.38E-03
    80 Broy./Diag. 0.10E+00   13.3     0.00718619      -285.0091339075  3.50E-04
    81 Broy./Diag. 0.10E+00   13.3     0.00659198      -284.9966227301  1.25E-02
    82 Broy./Diag. 0.10E+00   13.3     0.01507004      -284.9972550005 -6.32E-04
    83 Broy./Diag. 0.10E+00   13.3     0.00155694      -284.9846115032  1.26E-02
    84 Broy./Diag. 0.10E+00   13.2     0.00240233      -284.9864635619 -1.85E-03
    85 Broy./Diag. 0.10E+00   13.3     0.01119662      -284.9880726661 -1.61E-03
    86 Broy./Diag. 0.10E+00   13.3     0.00542860      -284.9828432129  5.23E-03
    87 Broy./Diag. 0.10E+00   13.3     0.00559182      -284.9814867953  1.36E-03
    88 Broy./Diag. 0.10E+00   13.3     0.00655961      -284.9940923258 -1.26E-02
    89 Broy./Diag. 0.10E+00   13.3     0.00742790      -285.0000181020 -5.93E-03
    90 Broy./Diag. 0.10E+00   13.3     0.02822656      -285.0029860617 -2.97E-03
    91 Broy./Diag. 0.10E+00   13.2     0.04937728      -285.0126340719 -9.65E-03
    92 Broy./Diag. 0.10E+00   13.3     0.02516473      -284.9884930230  2.41E-02
    93 Broy./Diag. 0.10E+00   13.3     0.02646659      -285.0070195139 -1.85E-02
    94 Broy./Diag. 0.10E+00   13.2     0.01918928      -284.9848340480  2.22E-02
    95 Broy./Diag. 0.10E+00   13.2     0.01240890      -284.9943161191 -9.48E-03
    96 Broy./Diag. 0.10E+00   13.3     0.01158077      -285.0130597122 -1.87E-02
    97 Broy./Diag. 0.10E+00   13.3     0.00904250      -285.0074408227  5.62E-03
    98 Broy./Diag. 0.10E+00   13.2     0.02573079      -285.0190280470 -1.16E-02
    99 Broy./Diag. 0.10E+00   13.3     0.03227314      -284.9868619396  3.22E-02
   100 Broy./Diag. 0.10E+00   13.3     0.02699697      -285.0168305264 -3.00E-02

  Leaving inner SCF loop after reaching   100 steps.


  Electronic density on regular grids:       -177.0000017916       -0.0000017916
  Core density on regular grids:              176.9999999999       -0.0000000001
  Total charge density on r-space grids:       -0.0000017918
  Total charge density g-space grids:          -0.0000017918

  Overlap energy of the core charge distribution:               0.00000836868231
  Self energy of the core charge distribution:               -656.67682311856515
  Core Hamiltonian energy:                                    203.19086461055275
  Hartree energy:                                             248.06004075703487
  Exchange-correlation energy:                                -79.54895212254837
  Dispersion energy:                                           -0.04052890273224
  Electronic entropic energy:                                  -0.00152614352853
  Fermi energy:                                                -0.14968759623578

  Total energy:                                              -285.01683052636838

  outer SCF iter =  124 RMS gradient =   0.27E-01 energy =       -285.0168305264
     1 Broy./Diag. 0.10E+00   19.7     0.18194513      -285.0365250610 -1.97E-02
     2 Broy./Diag. 0.10E+00   13.3     0.18336756      -285.6087640809 -5.72E-01
     3 Broy./Diag. 0.10E+00   13.3     0.00637700      -284.9771357558  6.32E-01
     4 Broy./Diag. 0.10E+00   13.3     0.03641788      -284.9795986390 -2.46E-03
     5 Broy./Diag. 0.10E+00   13.2     0.04122189      -285.0218593568 -4.23E-02
     6 Broy./Diag. 0.10E+00   13.3     0.02623161      -284.9718357303  5.00E-02
     7 Broy./Diag. 0.10E+00   13.3     0.01548364      -285.0087504389 -3.69E-02
     8 Broy./Diag. 0.10E+00   13.3     0.01741690      -285.0120917266 -3.34E-03
     9 Broy./Diag. 0.10E+00   13.3     0.01064714      -285.0315484855 -1.95E-02
    10 Broy./Diag. 0.10E+00   13.3     0.01967042      -285.0436941452 -1.21E-02
    11 Broy./Diag. 0.10E+00   13.3     0.02141539      -285.0089621592  3.47E-02
    12 Broy./Diag. 0.10E+00   13.2     0.01164255      -285.0348037442 -2.58E-02
    13 Broy./Diag. 0.10E+00   13.3     0.04618799      -285.0390320562 -4.23E-03
    14 Broy./Diag. 0.10E+00   13.3     0.01128418      -284.9902750795  4.88E-02
    15 Broy./Diag. 0.10E+00   13.3     0.01230856      -285.0099781660 -1.97E-02
    16 Broy./Diag. 0.10E+00   13.3     0.02868344      -284.9992283283  1.07E-02
    17 Broy./Diag. 0.10E+00   13.3     0.02196594      -285.0292020249 -3.00E-02
    18 Broy./Diag. 0.10E+00   13.3     0.01213241      -285.0078177295  2.14E-02
    19 Broy./Diag. 0.10E+00   13.2     0.00438465      -285.0144888475 -6.67E-03
    20 Broy./Diag. 0.10E+00   13.3     0.01386681      -285.0201724168 -5.68E-03
    21 Broy./Diag. 0.10E+00   13.3     0.00668232      -285.0109308571  9.24E-03
    22 Broy./Diag. 0.10E+00   13.3     0.03667829      -284.9960009219  1.49E-02
    23 Broy./Diag. 0.10E+00   13.3     0.02445059      -285.0437852813 -4.78E-02
    24 Broy./Diag. 0.10E+00   13.3     0.00746444      -285.0765008639 -3.27E-02
    25 Broy./Diag. 0.10E+00   13.2     0.00872607      -285.0710684817  5.43E-03
    26 Broy./Diag. 0.10E+00   13.2     0.01404790      -285.0958897879 -2.48E-02
    27 Broy./Diag. 0.10E+00   13.3     0.01348294      -285.0762855903  1.96E-02
    28 Broy./Diag. 0.10E+00   13.3     0.02610708      -285.0662458654  1.00E-02
    29 Broy./Diag. 0.10E+00   13.3     0.03298297      -285.0655598488  6.86E-04
    30 Broy./Diag. 0.10E+00   13.3     0.01187414      -285.1030772041 -3.75E-02
    31 Broy./Diag. 0.10E+00   13.3     0.00839273      -285.0883719905  1.47E-02
    32 Broy./Diag. 0.10E+00   13.2     0.00698230      -285.0822973784  6.07E-03
    33 Broy./Diag. 0.10E+00   13.2     0.00514666      -285.0747674111  7.53E-03
    34 Broy./Diag. 0.10E+00   13.3     0.03679326      -285.0897468681 -1.50E-02
    35 Broy./Diag. 0.10E+00   13.3     0.02257494      -285.0421120136  4.76E-02
    36 Broy./Diag. 0.10E+00   13.2     0.00607411      -285.0956966845 -5.36E-02
    37 Broy./Diag. 0.10E+00   13.3     0.01220400      -285.0924175641  3.28E-03
    38 Broy./Diag. 0.10E+00   13.3     0.01108788      -285.1160411919 -2.36E-02
    39 Broy./Diag. 0.10E+00   13.2     0.03736768      -285.1067364163  9.30E-03
    40 Broy./Diag. 0.10E+00   13.2     0.02838988      -285.1413973235 -3.47E-02
    41 Broy./Diag. 0.10E+00   13.3     0.02134843      -285.0933030222  4.81E-02
    42 Broy./Diag. 0.10E+00   13.3     0.04347375      -285.0774766963  1.58E-02
    43 Broy./Diag. 0.10E+00   13.3     0.02422037      -285.1071805161 -2.97E-02
    44 Broy./Diag. 0.10E+00   13.3     0.01509723      -285.1088585394 -1.68E-03
    45 Broy./Diag. 0.10E+00   13.3     0.02517498      -285.0986977538  1.02E-02
    46 Broy./Diag. 0.10E+00   13.2     0.01616528      -285.0793747774  1.93E-02
    47 Broy./Diag. 0.10E+00   13.2     0.00151713      -285.0553150787  2.41E-02
    48 Broy./Diag. 0.10E+00   13.3     0.01654137      -285.0519458093  3.37E-03
    49 Broy./Diag. 0.10E+00   13.3     0.02646144      -285.0545087592 -2.56E-03
    50 Broy./Diag. 0.10E+00   13.3     0.04263057      -285.0713125112 -1.68E-02
    51 Broy./Diag. 0.10E+00   13.3     0.08757169      -285.0400670642  3.12E-02
    52 Broy./Diag. 0.10E+00   13.3     0.01361252      -285.1193894926 -7.93E-02
    53 Broy./Diag. 0.10E+00   13.2     0.00880697      -285.1129435291  6.45E-03
    54 Broy./Diag. 0.10E+00   13.2     0.01094254      -285.1000300943  1.29E-02
    55 Broy./Diag. 0.10E+00   13.3     0.01561857      -285.0899252090  1.01E-02
    56 Broy./Diag. 0.10E+00   13.3     0.00764799      -285.0920526955 -2.13E-03
    57 Broy./Diag. 0.10E+00   13.2     0.04238632      -285.1192903721 -2.72E-02
    58 Broy./Diag. 0.10E+00   13.3     0.03619238      -285.0717869763  4.75E-02
    59 Broy./Diag. 0.10E+00   13.3     0.00436470      -285.0953005184 -2.35E-02
    60 Broy./Diag. 0.10E+00   13.2     0.03176369      -285.0999579518 -4.66E-03
    61 Broy./Diag. 0.10E+00   13.2     0.04999474      -285.1463062609 -4.63E-02
    62 Broy./Diag. 0.10E+00   13.3     0.00216028      -285.1495442788 -3.24E-03
    63 Broy./Diag. 0.10E+00   13.3     0.01451380      -285.1427762829  6.77E-03
    64 Broy./Diag. 0.10E+00   13.3     0.03617297      -285.1191965776  2.36E-02
    65 Broy./Diag. 0.10E+00   13.3     0.01163317      -285.0874349566  3.18E-02
    66 Broy./Diag. 0.10E+00   13.3     0.02001533      -285.0870265421  4.08E-04
    67 Broy./Diag. 0.10E+00   13.3     0.02324737      -285.0994354810 -1.24E-02
    68 Broy./Diag. 0.10E+00   13.2     0.00716863      -285.0941223514  5.31E-03
    69 Broy./Diag. 0.10E+00   13.3     0.02845253      -285.0960368400 -1.91E-03
    70 Broy./Diag. 0.10E+00   13.3     0.03023431      -285.0878714100  8.17E-03
    71 Broy./Diag. 0.10E+00   13.3     0.01171196      -285.0864931598  1.38E-03
    72 Broy./Diag. 0.10E+00   13.3     0.02477112      -285.0837322465  2.76E-03
    73 Broy./Diag. 0.10E+00   13.3     0.01753113      -285.0826680868  1.06E-03
    74 Broy./Diag. 0.10E+00   13.3     0.04044242      -285.0786107441  4.06E-03
    75 Broy./Diag. 0.10E+00   13.2     0.04579678      -285.0761203239  2.49E-03
    76 Broy./Diag. 0.10E+00   13.3     0.08263541      -285.0182755572  5.78E-02
    77 Broy./Diag. 0.10E+00   13.3     0.00802509      -285.1023032274 -8.40E-02
    78 Broy./Diag. 0.10E+00   13.3     0.01246624      -285.0996125044  2.69E-03
    79 Broy./Diag. 0.10E+00   13.3     0.00180007      -285.1164909998 -1.69E-02
    80 Broy./Diag. 0.10E+00   13.3     0.01615498      -285.1226878696 -6.20E-03
    81 Broy./Diag. 0.10E+00   13.3     0.00960148      -285.1228718673 -1.84E-04
    82 Broy./Diag. 0.10E+00   13.2     0.02794934      -285.1130111309  9.86E-03
    83 Broy./Diag. 0.10E+00   13.3     0.01154561      -285.0967308991  1.63E-02
    84 Broy./Diag. 0.10E+00   13.3     0.00361251      -285.1070900596 -1.04E-02
    85 Broy./Diag. 0.10E+00   13.3     0.03947889      -285.1074038376 -3.14E-04
    86 Broy./Diag. 0.10E+00   13.3     0.04069151      -285.0743647584  3.30E-02
    87 Broy./Diag. 0.10E+00   13.3     0.02510616      -285.1222141297 -4.78E-02
    88 Broy./Diag. 0.10E+00   13.2     0.02666866      -285.0773395656  4.49E-02
    89 Broy./Diag. 0.10E+00   13.2     0.00432625      -285.1000766623 -2.27E-02
    90 Broy./Diag. 0.10E+00   13.3     0.02893316      -285.1007486923 -6.72E-04
    91 Broy./Diag. 0.10E+00   13.3     0.02664980      -285.0796831035  2.11E-02
    92 Broy./Diag. 0.10E+00   13.3     0.02294410      -285.1244024124 -4.47E-02
    93 Broy./Diag. 0.10E+00   13.3     0.04686533      -285.1135514982  1.09E-02
    94 Broy./Diag. 0.10E+00   13.3     0.03799248      -285.0386927874  7.49E-02
    95 Broy./Diag. 0.10E+00   13.2     0.03134137      -285.0572481668 -1.86E-02
    96 Broy./Diag. 0.10E+00   13.2     0.04327443      -285.0613022541 -4.05E-03
    97 Broy./Diag. 0.10E+00   13.3     0.02465096      -284.9838690540  7.74E-02
    98 Broy./Diag. 0.10E+00   13.3     0.00936175      -284.9933486861 -9.48E-03
    99 Broy./Diag. 0.10E+00   13.3     0.03015725      -284.9785926921  1.48E-02
   100 Broy./Diag. 0.10E+00   13.2     0.01079879      -285.0269271489 -4.83E-02

  Leaving inner SCF loop after reaching   100 steps.


  Electronic density on regular grids:       -177.0000017911       -0.0000017911
  Core density on regular grids:              176.9999999999       -0.0000000001
  Total charge density on r-space grids:       -0.0000017912
  Total charge density g-space grids:          -0.0000017912

  Overlap energy of the core charge distribution:               0.00000836868231
  Self energy of the core charge distribution:               -656.67682311856515
  Core Hamiltonian energy:                                    203.19518791439128
  Hartree energy:                                             248.04853405893948
  Exchange-correlation energy:                                -79.55118973279232
  Dispersion energy:                                           -0.04052890273224
  Electronic entropic energy:                                  -0.00199304138718
  Fermi energy:                                                -0.14940043644333

  Total energy:                                              -285.02692714890594

  outer SCF iter =  125 RMS gradient =   0.11E-01 energy =       -285.0269271489
     1 Broy./Diag. 0.10E+00   19.7     0.21000618      -285.0402279038 -1.33E-02
     2 Broy./Diag. 0.10E+00   13.2     0.21294866      -285.2634053740 -2.23E-01
     3 Broy./Diag. 0.10E+00   13.2     0.09043478      -285.0432671834  2.20E-01
     4 Broy./Diag. 0.10E+00   13.3     0.02002962      -285.1156749632 -7.24E-02
     5 Broy./Diag. 0.10E+00   13.2     0.02125744      -285.1094510258  6.22E-03
     6 Broy./Diag. 0.10E+00   13.3     0.03681477      -285.1629861042 -5.35E-02
     7 Broy./Diag. 0.10E+00   13.3     0.00771546      -285.1072343143  5.58E-02
     8 Broy./Diag. 0.10E+00   13.3     0.00733672      -285.0973431330  9.89E-03
     9 Broy./Diag. 0.10E+00   13.3     0.04436731      -285.1103670875 -1.30E-02
    10 Broy./Diag. 0.10E+00   13.2     0.01018477      -285.0204637189  8.99E-02
    11 Broy./Diag. 0.10E+00   13.3     0.04009264      -285.0145033045  5.96E-03
    12 Broy./Diag. 0.10E+00   13.3     0.02281102      -285.1024456136 -8.79E-02
    13 Broy./Diag. 0.10E+00   13.2     0.01904975      -285.0520929248  5.04E-02
    14 Broy./Diag. 0.10E+00   13.3     0.03377245      -285.0793187295 -2.72E-02
    15 Broy./Diag. 0.10E+00   13.3     0.00439985      -285.1140140049 -3.47E-02
    16 Broy./Diag. 0.10E+00   13.2     0.02032481      -285.1048041731  9.21E-03
    17 Broy./Diag. 0.10E+00   13.2     0.02082046      -285.0926117046  1.22E-02
    18 Broy./Diag. 0.10E+00   13.3     0.01026872      -285.0543519756  3.83E-02
    19 Broy./Diag. 0.10E+00   13.3     0.09812960      -285.0249651406  2.94E-02
    20 Broy./Diag. 0.10E+00   13.3     0.09116019      -285.1097753543 -8.48E-02
    21 Broy./Diag. 0.10E+00   13.3     0.03777659      -285.0508536931  5.89E-02
    22 Broy./Diag. 0.10E+00   13.3     0.05944801      -285.0122059418  3.86E-02
    23 Broy./Diag. 0.10E+00   13.2     0.01646795      -285.0258196245 -1.36E-02
    24 Broy./Diag. 0.10E+00   13.2     0.01241702      -285.0150824837  1.07E-02
    25 Broy./Diag. 0.10E+00   13.3     0.01048846      -284.9822390982  3.28E-02
    26 Broy./Diag. 0.10E+00   13.3     0.01535089      -284.9458170923  3.64E-02
    27 Broy./Diag. 0.10E+00   13.3     0.01235950      -284.9060112905  3.98E-02
    28 Broy./Diag. 0.10E+00   13.3     0.00998393      -284.8942021618  1.18E-02
    29 Broy./Diag. 0.10E+00   13.3     0.00501089      -284.9011863929 -6.98E-03
    30 Broy./Diag. 0.10E+00   13.3     0.01002924      -284.8931802618  8.01E-03
    31 Broy./Diag. 0.10E+00   13.2     0.01020102      -284.8871844317  6.00E-03
    32 Broy./Diag. 0.10E+00   13.3     0.01633997      -284.8894953546 -2.31E-03
    33 Broy./Diag. 0.10E+00   13.3     0.01094221      -284.9131055132 -2.36E-02
    34 Broy./Diag. 0.10E+00   13.3     0.00869675      -284.9406759543 -2.76E-02
    35 Broy./Diag. 0.10E+00   13.3     0.00712992      -284.9464523323 -5.78E-03
    36 Broy./Diag. 0.10E+00   13.3     0.01274875      -284.9344319958  1.20E-02
    37 Broy./Diag. 0.10E+00   13.2     0.03410985      -284.9514274300 -1.70E-02
    38 Broy./Diag. 0.10E+00   13.2     0.05556089      -284.9289138476  2.25E-02
    39 Broy./Diag. 0.10E+00   13.3     0.03448680      -284.8784174534  5.05E-02
    40 Broy./Diag. 0.10E+00   13.3     0.00607730      -284.8631251786  1.53E-02
    41 Broy./Diag. 0.10E+00   13.3     0.07567536      -284.8984228675 -3.53E-02
    42 Broy./Diag. 0.10E+00   13.3     0.01108239      -284.7607280491  1.38E-01
    43 Broy./Diag. 0.10E+00   13.3     0.01923561      -284.7590416993  1.69E-03
    44 Broy./Diag. 0.10E+00   13.3     0.01328438      -284.7904920142 -3.15E-02
    45 Broy./Diag. 0.10E+00   13.2     0.02400325      -284.8303519458 -3.99E-02
    46 Broy./Diag. 0.10E+00   13.3     0.00439152      -284.8166502295  1.37E-02
    47 Broy./Diag. 0.10E+00   13.3     0.02024184      -284.8253671324 -8.72E-03
    48 Broy./Diag. 0.10E+00   13.3     0.00669272      -284.8455129800 -2.01E-02
    49 Broy./Diag. 0.10E+00   13.3     0.00588952      -284.8337558718  1.18E-02
    50 Broy./Diag. 0.10E+00   13.3     0.02248179      -284.8253631906  8.39E-03
    51 Broy./Diag. 0.10E+00   13.3     0.00225027      -284.8320473675 -6.68E-03
    52 Broy./Diag. 0.10E+00   13.2     0.02227037      -284.8351127404 -3.07E-03
    53 Broy./Diag. 0.10E+00   13.3     0.02639708      -284.8648443452 -2.97E-02
    54 Broy./Diag. 0.10E+00   13.3     0.06855293      -284.9016469407 -3.68E-02
    55 Broy./Diag. 0.10E+00   13.3     0.05540888      -284.9870418106 -8.54E-02
    56 Broy./Diag. 0.10E+00   13.3     0.02676761      -284.9777287392  9.31E-03
    57 Broy./Diag. 0.10E+00   13.3     0.03446707      -284.9669723170  1.08E-02
    58 Broy./Diag. 0.10E+00   13.3     0.04751162      -284.9208761928  4.61E-02
    59 Broy./Diag. 0.10E+00   13.2     0.01631657      -284.9838825818 -6.30E-02
    60 Broy./Diag. 0.10E+00   13.3     0.02057317      -284.9757712718  8.11E-03
    61 Broy./Diag. 0.10E+00   13.3     0.03972499      -284.9672433884  8.53E-03
    62 Broy./Diag. 0.10E+00   13.3     0.03484707      -284.9847047417 -1.75E-02
    63 Broy./Diag. 0.10E+00   13.3     0.01438557      -284.9567440705  2.80E-02
    64 Broy./Diag. 0.10E+00   13.3     0.00779344      -284.9658153897 -9.07E-03
    65 Broy./Diag. 0.10E+00   13.3     0.01539371      -284.9728551425 -7.04E-03
    66 Broy./Diag. 0.10E+00   13.2     0.01112886      -284.9732791943 -4.24E-04
    67 Broy./Diag. 0.10E+00   13.3     0.00523484      -284.9945587977 -2.13E-02
    68 Broy./Diag. 0.10E+00   13.3     0.06992725      -284.9953640011 -8.05E-04
    69 Broy./Diag. 0.10E+00   13.3     0.03402621      -285.0173678001 -2.20E-02
    70 Broy./Diag. 0.10E+00   13.3     0.06832014      -285.0192589464 -1.89E-03
    71 Broy./Diag. 0.10E+00   13.3     0.05089605      -285.1100630611 -9.08E-02
    72 Broy./Diag. 0.10E+00   13.3     0.01651346      -285.0213386862  8.87E-02
    73 Broy./Diag. 0.10E+00   13.2     0.01809071      -285.0253132595 -3.97E-03
    74 Broy./Diag. 0.10E+00   13.2     0.02886481      -285.0211364854  4.18E-03
    75 Broy./Diag. 0.10E+00   13.3     0.01392145      -284.9997147366  2.14E-02
    76 Broy./Diag. 0.10E+00   13.3     0.06248611      -284.9698703986  2.98E-02
    77 Broy./Diag. 0.10E+00   13.3     0.08124162      -285.0482667171 -7.84E-02
    78 Broy./Diag. 0.10E+00   13.3     0.04075268      -284.9315905340  1.17E-01
    79 Broy./Diag. 0.10E+00   13.2     0.07224852      -284.8942364447  3.74E-02
    80 Broy./Diag. 0.10E+00   13.2     0.09995429      -284.9473003690 -5.31E-02
