      43
 i =      179, E =      -285.2790985911
  C         1.8658116537       -1.7571512954       -2.1679207752
  C         1.0459315356       -0.7466150256       -1.6726617677
  C         1.7698982587        0.3052667483       -1.0283075525
  C         1.0536320358        1.4083611548       -0.4672308790
  C         1.7645082517        2.4556024213        0.1991022874
  C         1.0474251889        3.5483708853        0.7712009417
  C         1.8074469819        4.5583861609        1.4508348461
  C         3.0446896173        4.3845163218        1.3763801584
  C         3.1983576418        2.4182626592        0.2324944517
  C         3.9219831957        1.3708425090       -0.4125204525
  C         3.2021350941        0.2860789079       -1.0012559061
  C         3.9278262005       -0.7826358460       -1.6147334085
  C         3.1053267478       -1.7747679260       -2.1422543365
  C         3.9366959290        3.4872644653        0.8420453110
  C         6.1506827959        4.5915857797        1.2110844691
  C         5.3344629027        3.5647297485        0.7420470366
  C         6.0536452785        2.5327503266        0.0584612202
  C         5.3413077076        1.4233133733       -0.4954939562
  C         6.0546967086        0.3839179905       -1.1681516381
  C         5.3325885524       -0.7261794713       -1.7107389012
  C         6.1505754174       -1.6570202539       -2.3453623060
  C         7.3834939549       -1.5906079401       -2.4599478654
  C         8.2046572482       -0.5862390461       -1.9548232574
  C         7.4811043938        0.4508850576       -1.2853425959
  C         8.1964622067        1.5467379243       -0.7117398971
  C         7.4815091266        2.6035676721       -0.0663773457
  C         8.2018135733        3.7141916628        0.4788646304
  C         7.3821812007        4.6594308244        1.0918126909
  C        10.4959651619        4.6112178286        0.9773096398
  C         9.6044936167        3.7175366596        0.4361870233
  C        10.3429093374        2.6248705492       -0.1297406636
  C         9.6186936921        1.5585833243       -0.7422539848
  C        10.3387909144        0.4812515616       -1.3437765583
  C         9.6134421895       -0.5694499101       -1.9884188414
  C        10.4354520683       -1.5558702286       -2.5273983565
  C        11.6712901575       -1.6031934415       -2.4383789685
  C        12.4890258315       -0.6728164326       -1.8023391639
  C        11.7678254662        0.4340800304       -1.2543882182
  C        12.4827894142        1.4724585448       -0.5796844512
  C        11.7732142076        2.5850257507       -0.0278519768
  C        12.4880906459        3.6189942371        0.6471110800
  C        11.7270438388        4.7144291596        1.1752688354
 Na         0.3216333309        6.3692271926        2.4444045827
