 DBCSR| CPU Multiplication driver                                           BLAS (U)
 DBCSR| Multrec recursion limit                                              512 (U)
 DBCSR| Multiplication stack size                                           1000 (D)
 DBCSR| Maximum elements for images                                    UNLIMITED (U)
 DBCSR| Multiplicative factor virtual images                                   1 (U)
 DBCSR| Use multiplication densification                                       T (D)
 DBCSR| Multiplication size stacks                                             3 (U)
 DBCSR| Use memory pool for CPU allocation                                     F (U)
 DBCSR| Number of 3D layers                                               SINGLE (U)
 DBCSR| Use MPI memory allocation                                              F (U)
 DBCSR| Use RMA algorithm                                                      F (U)
 DBCSR| Use Communication thread                                               T (U)
 DBCSR| Communication thread load                                             87 (D)
 DBCSR| MPI: My process id                                                     0
 DBCSR| MPI: Number of processes                                              16
 DBCSR| OMP: Current number of threads                                         1
 DBCSR| OMP: Max number of threads                                             1
 DBCSR| Split modifier for TAS multiplication algorithm                  1.0E+00 (U)


  **** **** ******  **  PROGRAM STARTED AT               2025-06-11 16:17:02.334
 ***** ** ***  *** **   PROGRAM STARTED ON                            sebnode120
 **    ****   ******    PROGRAM STARTED BY                                luehrs
 ***** **    ** ** **   PROGRAM PROCESS ID                                574926
  **** **  *******  **  PROGRAM STARTED IN /home/luehrs/PhD/Sodium_batteries/Sod
                                           ium-graphene-edge/Armchair_3/No_hydro
                                           gen

 CP2K| version string:                                       CP2K version 2023.1
 CP2K| source code revision number:                                  git:b888bd8
 CP2K| cp2kflags: omp libint fftw3 libxc elpa parallel scalapack spglib         
 CP2K| is freely available from                            https://www.cp2k.org/
 CP2K| Program compiled at                          Tue Jan 10 19:52:03 UTC 2023
 CP2K| Program compiled on                                            x86-ubc-01
 CP2K| Program compiled for                                Linux-x86_64-gfortran
 CP2K| Data directory path                                       /usr/share/cp2k
 CP2K| Input file name                                        input.armchair.inp

 GLOBAL| Force Environment number                                              1
 GLOBAL| Basis set file name                                      ./BASIS_MOLOPT
 GLOBAL| Potential file name                                    ./GTH_POTENTIALS
 GLOBAL| MM Potential file name                                     MM_POTENTIAL
 GLOBAL| Coordinate file name           ./graphene_armchair_no_hydrogen_relaxed.
 GLOBAL| Method name                                                        CP2K
 GLOBAL| Project name                                 graphene_armchair_BSSE_PBE
 GLOBAL| Run type                                                           BSSE
 GLOBAL| FFT library                                                       FFTW3
 GLOBAL| Diagonalization library                                            ELPA
 GLOBAL| DGEMM library                                                      BLAS
 GLOBAL| Minimum number of eigenvectors for ELPA usage                        16
 GLOBAL| Orthonormality check for eigenvectors                          DISABLED
 GLOBAL| Matrix multiplication library                                 ScaLAPACK
 GLOBAL| All-to-all communication in single precision                          F
 GLOBAL| FFTs using library dependent lengths                                  F
 GLOBAL| Grid backend                                                       AUTO
 GLOBAL| Global print level                                                  LOW
 GLOBAL| MPI I/O enabled                                                       T
 GLOBAL| Total number of message passing processes                            16
 GLOBAL| Number of threads for this process                                    1
 GLOBAL| This output is from process                                           0
 GLOBAL| Stack size for threads created by OpenMP (OMP_STACKSIZE)        default
 GLOBAL| CPU model name                 Intel(R) Xeon(R) Gold 6144 CPU @ 3.50GHz

 MEMORY| system memory details [Kb]
 MEMORY|                        rank 0           min           max       average
 MEMORY| MemTotal             65585096      65585096      65585096      65585096
 MEMORY| MemFree              61792984      61792984      61792984      61792984
 MEMORY| Buffers                307948        307948        307948        307948
 MEMORY| Cached                1471608       1471608       1471608       1471608
 MEMORY| Slab                   278156        278156        278156        278156
 MEMORY| SReclaimable           137520        137520        137520        137520
 MEMORY| MemLikelyFree        63710060      63710060      63710060      63710060


 GENERATE|  Preliminary Number of Bonds generated:                             0
 GENERATE|  Achieved consistency in connectivity generation.

 *******************************************************************************
 *******************************************************************************
 **                                                                           **
 **     #####                         ##              ##                      **
 **    ##   ##            ##          ##              ##                      **
 **   ##     ##                       ##            ######                    **
 **   ##     ##  ##   ##  ##   #####  ##  ##   ####   ##    #####    #####    **
 **   ##     ##  ##   ##  ##  ##      ## ##   ##      ##   ##   ##  ##   ##   **
 **   ##  ## ##  ##   ##  ##  ##      ####     ###    ##   ######   ######    **
 **    ##  ###   ##   ##  ##  ##      ## ##      ##   ##   ##       ##        **
 **     #######   #####   ##   #####  ##  ##  ####    ##    #####   ##        **
 **           ##                                                    ##        **
 **                                                                           **
 **                                                ... make the atoms dance   **
 **                                                                           **
 **            Copyright (C) by CP2K developers group (2000-2022)             **
 **                      J. Chem. Phys. 152, 194103 (2020)                    **
 **                                                                           **
 *******************************************************************************


 TOTAL NUMBERS AND MAXIMUM NUMBERS

  Total number of            - Atomic kinds:                                   2
                             - Atoms:                                         43
                             - Shell sets:                                    43
                             - Shells:                                       215
                             - Primitive Cartesian functions:                217
                             - Cartesian basis functions:                    597
                             - Spherical basis functions:                    555

  Maximum angular momentum of- Orbital basis functions:                        2
                             - Local part of the GTH pseudopotential:          2
                             - Non-local part of the GTH pseudopotential:      1


 SCF PARAMETERS         Density guess:                                    ATOMIC
                        --------------------------------------------------------
                        max_scf:                                             100
                        max_scf_history:                                       0
                        max_diis:                                              4
                        --------------------------------------------------------
                        eps_scf:                                        3.00E-07
                        eps_scf_history:                                0.00E+00
                        eps_diis:                                       1.00E-01
                        eps_eigval:                                     1.00E-05
                        --------------------------------------------------------
                        level_shift [a.u.]:                             0.000000
                        added MOs                                       100  100
                        --------------------------------------------------------
                        Mixing method:                            BROYDEN_MIXING
                                                charge density mixing in g-space
                        --------------------------------------------------------
                        Smear method:                                FERMI_DIRAC
                        Electronic temperature [K]:                        300.0
                        Electronic temperature [a.u.]:                  9.50E-04
                        Accuracy threshold:                             1.00E-10
                        --------------------------------------------------------
                        Outer loop SCF in use 
                        No variables optimised in outer loop
                        eps_scf                                         1.00E-06
                        max_scf                                              150
                        DIIS optimization
                        DIIS buffer length                                     3
                        step_size                                       5.00E-01

 -------------------------------------------------------------------------------
 -                                                                             -
 -  BSSE CALCULATION         FRAGMENT CONF: 10        FRAGMENT SUBCONF: 10     -
 -                           CHARGE =     0           MULTIPLICITY =     0     -
 -                                                                             -
 -                 ATOM INDEX                              ATOM NAME           -
 -                 ----------                              ---------           -
 -                      1                                   C                  -
 -                      2                                   C                  -
 -                      3                                   C                  -
 -                      4                                   C                  -
 -                      5                                   C                  -
 -                      6                                   C                  -
 -                      7                                   C                  -
 -                      8                                   C                  -
 -                      9                                   C                  -
 -                     10                                   C                  -
 -                     11                                   C                  -
 -                     12                                   C                  -
 -                     13                                   C                  -
 -                     14                                   C                  -
 -                     15                                   C                  -
 -                     16                                   C                  -
 -                     17                                   C                  -
 -                     18                                   C                  -
 -                     19                                   C                  -
 -                     20                                   C                  -
 -                     21                                   C                  -
 -                     22                                   C                  -
 -                     23                                   C                  -
 -                     24                                   C                  -
 -                     25                                   C                  -
 -                     26                                   C                  -
 -                     27                                   C                  -
 -                     28                                   C                  -
 -                     29                                   C                  -
 -                     30                                   C                  -
 -                     31                                   C                  -
 -                     32                                   C                  -
 -                     33                                   C                  -
 -                     34                                   C                  -
 -                     35                                   C                  -
 -                     36                                   C                  -
 -                     37                                   C                  -
 -                     38                                   C                  -
 -                     39                                   C                  -
 -                     40                                   C                  -
 -                     41                                   C                  -
 -                     42                                   C                  -
 -------------------------------------------------------------------------------

 *******************************************************************************
 *******************************************************************************
 **                                                                           **
 **     #####                         ##              ##                      **
 **    ##   ##            ##          ##              ##                      **
 **   ##     ##                       ##            ######                    **
 **   ##     ##  ##   ##  ##   #####  ##  ##   ####   ##    #####    #####    **
 **   ##     ##  ##   ##  ##  ##      ## ##   ##      ##   ##   ##  ##   ##   **
 **   ##  ## ##  ##   ##  ##  ##      ####     ###    ##   ######   ######    **
 **    ##  ###   ##   ##  ##  ##      ## ##      ##   ##   ##       ##        **
 **     #######   #####   ##   #####  ##  ##  ####    ##    #####   ##        **
 **           ##                                                    ##        **
 **                                                                           **
 **                                                ... make the atoms dance   **
 **                                                                           **
 **            Copyright (C) by CP2K developers group (2000-2022)             **
 **                      J. Chem. Phys. 152, 194103 (2020)                    **
 **                                                                           **
 *******************************************************************************


 TOTAL NUMBERS AND MAXIMUM NUMBERS

  Total number of            - Atomic kinds:                                   1
                             - Atoms:                                         42
                             - Shell sets:                                    42
                             - Shells:                                       210
                             - Primitive Cartesian functions:                210
                             - Cartesian basis functions:                    588
                             - Spherical basis functions:                    546

  Maximum angular momentum of- Orbital basis functions:                        2
                             - Local part of the GTH pseudopotential:          2
                             - Non-local part of the GTH pseudopotential:      0


 SCF PARAMETERS         Density guess:                                    ATOMIC
                        --------------------------------------------------------
                        max_scf:                                             100
                        max_scf_history:                                       0
                        max_diis:                                              4
                        --------------------------------------------------------
                        eps_scf:                                        3.00E-07
                        eps_scf_history:                                0.00E+00
                        eps_diis:                                       1.00E-01
                        eps_eigval:                                     1.00E-05
                        --------------------------------------------------------
                        level_shift [a.u.]:                             0.000000
                        added MOs                                       100  100
                        --------------------------------------------------------
                        Mixing method:                            BROYDEN_MIXING
                                                charge density mixing in g-space
                        --------------------------------------------------------
                        Smear method:                                FERMI_DIRAC
                        Electronic temperature [K]:                        300.0
                        Electronic temperature [a.u.]:                  9.50E-04
                        Accuracy threshold:                             1.00E-10
                        --------------------------------------------------------
                        Outer loop SCF in use 
                        No variables optimised in outer loop
                        eps_scf                                         1.00E-06
                        max_scf                                              150
                        DIIS optimization
                        DIIS buffer length                                     3
                        step_size                                       5.00E-01

 Spin 1

 Number of electrons:                                                         84
 Number of occupied orbitals:                                                 84
 Number of molecular orbitals:                                               184

 Spin 2

 Number of electrons:                                                         84
 Number of occupied orbitals:                                                 84
 Number of molecular orbitals:                                               184

 Number of orbital functions:                                                546
 Number of independent orbital functions:                                    546

 Extrapolation method: initial_guess


 SCF WAVEFUNCTION OPTIMIZATION

  Step     Update method      Time    Convergence         Total energy    Change
  ------------------------------------------------------------------------------
     1 NoMix/Diag. 0.10E+00    4.2     0.46344580      -236.0468780821 -2.36E+02
     2 Broy./Diag. 0.10E+00    8.2     0.01145125      -229.5816586533  6.47E+00
     3 Broy./Diag. 0.10E+00    8.7     0.06408221      -234.0647280854 -4.48E+00
     4 Broy./Diag. 0.10E+00    8.7     0.00818046      -236.6592892425 -2.59E+00
     5 Broy./Diag. 0.10E+00    8.9     0.02626758      -237.3245396097 -6.65E-01
     6 Broy./Diag. 0.10E+00    9.1     0.00437339      -237.5900554442 -2.66E-01
     7 Broy./Diag. 0.10E+00    9.4     0.01355903      -237.6790779518 -8.90E-02
     8 Broy./Diag. 0.10E+00    9.7     0.00449609      -237.7590573258 -8.00E-02
     9 Broy./Diag. 0.10E+00    9.9     0.00480472      -237.7920872640 -3.30E-02
    10 Broy./Diag. 0.10E+00   10.3     0.00395468      -237.8298201258 -3.77E-02
    11 Broy./Diag. 0.10E+00   10.7     0.00581551      -237.8491344636 -1.93E-02
    12 Broy./Diag. 0.10E+00   11.1     0.00394402      -237.8811598267 -3.20E-02
    13 Broy./Diag. 0.10E+00   11.6     0.00161833      -237.8866194922 -5.46E-03
    14 Broy./Diag. 0.10E+00   12.1     0.00080378      -237.9067526513 -2.01E-02
    15 Broy./Diag. 0.10E+00   12.9     0.00083522      -237.9249369225 -1.82E-02
    16 Broy./Diag. 0.10E+00   14.5     0.00073701      -237.9391363548 -1.42E-02
    17 Broy./Diag. 0.10E+00   17.0     0.00082699      -237.9493674781 -1.02E-02
    18 Broy./Diag. 0.10E+00   14.0     0.00025738      -237.9567386941 -7.37E-03
    19 Broy./Diag. 0.10E+00   14.0     0.00021502      -237.9582733345 -1.53E-03
    20 Broy./Diag. 0.10E+00   14.0     0.00021033      -237.9602992263 -2.03E-03
    21 Broy./Diag. 0.10E+00   14.0     0.00029649      -237.9602883345  1.09E-05
    22 Broy./Diag. 0.10E+00   14.0     0.00019876      -237.9600547513  2.34E-04
    23 Broy./Diag. 0.10E+00   14.2     0.00006657      -237.9608154818 -7.61E-04
    24 Broy./Diag. 0.10E+00   14.2     0.00008299      -237.9631057825 -2.29E-03
    25 Broy./Diag. 0.10E+00   14.1     0.00007305      -237.9665562822 -3.45E-03
    26 Broy./Diag. 0.10E+00   14.0     0.00004367      -237.9690954152 -2.54E-03
    27 Broy./Diag. 0.10E+00   13.9     0.00006141      -237.9711097415 -2.01E-03
    28 Broy./Diag. 0.10E+00   13.9     0.00005185      -237.9724133450 -1.30E-03
    29 Broy./Diag. 0.10E+00   13.9     0.00004960      -237.9728149611 -4.02E-04
    30 Broy./Diag. 0.10E+00   14.0     0.00007492      -237.9728197350 -4.77E-06
    31 Broy./Diag. 0.10E+00   14.0     0.00004491      -237.9730126416 -1.93E-04
    32 Broy./Diag. 0.10E+00   14.0     0.00009735      -237.9730016220  1.10E-05
    33 Broy./Diag. 0.10E+00   14.0     0.00003762      -237.9731474048 -1.46E-04
    34 Broy./Diag. 0.10E+00   14.0     0.00008892      -237.9731307329  1.67E-05
    35 Broy./Diag. 0.10E+00   14.0     0.00004516      -237.9732260583 -9.53E-05
    36 Broy./Diag. 0.10E+00   14.0     0.00004847      -237.9731093054  1.17E-04
    37 Broy./Diag. 0.10E+00   14.1     0.00000619      -237.9730678990  4.14E-05
    38 Broy./Diag. 0.10E+00   14.1     0.00004723      -237.9730880149 -2.01E-05
    39 Broy./Diag. 0.10E+00   14.1     0.00000513      -237.9731481427 -6.01E-05
    40 Broy./Diag. 0.10E+00   14.2     0.00003291      -237.9732904856 -1.42E-04
    41 Broy./Diag. 0.10E+00   14.2     0.00002800      -237.9734307885 -1.40E-04
    42 Broy./Diag. 0.10E+00   14.2     0.00003157      -237.9735081614 -7.74E-05
    43 Broy./Diag. 0.10E+00   14.1     0.00002150      -237.9735580686 -4.99E-05
    44 Broy./Diag. 0.10E+00   14.3     0.00000928      -237.9735938479 -3.58E-05
    45 Broy./Diag. 0.10E+00   14.3     0.00003784      -237.9736076868 -1.38E-05
    46 Broy./Diag. 0.10E+00   14.3     0.00000235      -237.9736179670 -1.03E-05
    47 Broy./Diag. 0.10E+00   14.2     0.00002187      -237.9736253194 -7.35E-06
    48 Broy./Diag. 0.10E+00   14.2     0.00002229      -237.9736250194  3.00E-07
    49 Broy./Diag. 0.10E+00   14.2     0.00005917      -237.9736158090  9.21E-06
    50 Broy./Diag. 0.10E+00   14.2     0.00002971      -237.9736066024  9.21E-06
    51 Broy./Diag. 0.10E+00   14.2     0.00003132      -237.9736016894  4.91E-06
    52 Broy./Diag. 0.10E+00   14.2     0.00008278      -237.9735940289  7.66E-06
    53 Broy./Diag. 0.10E+00   14.3     0.00001578      -237.9735930508  9.78E-07
    54 Broy./Diag. 0.10E+00   14.2     0.00002817      -237.9735905244  2.53E-06
    55 Broy./Diag. 0.10E+00   14.2     0.00001107      -237.9735858261  4.70E-06
    56 Broy./Diag. 0.10E+00   14.2     0.00002544      -237.9735867505 -9.24E-07
    57 Broy./Diag. 0.10E+00   14.1     0.00001034      -237.9735852653  1.49E-06
    58 Broy./Diag. 0.10E+00   14.3     0.00000318      -237.9735839273  1.34E-06
    59 Broy./Diag. 0.10E+00   14.3     0.00001116      -237.9735823384  1.59E-06
    60 Broy./Diag. 0.10E+00   14.4     0.00001040      -237.9735829653 -6.27E-07
    61 Broy./Diag. 0.10E+00   14.4     0.00001309      -237.9735838606 -8.95E-07
    62 Broy./Diag. 0.10E+00   14.3     0.00001804      -237.9735795870  4.27E-06
    63 Broy./Diag. 0.10E+00   14.3     0.00001433      -237.9735762677  3.32E-06
    64 Broy./Diag. 0.10E+00   14.1     0.00000567      -237.9735748535  1.41E-06
    65 Broy./Diag. 0.10E+00   14.3     0.00000781      -237.9735748187  3.47E-08
    66 Broy./Diag. 0.10E+00   14.3     0.00000630      -237.9735744028  4.16E-07
    67 Broy./Diag. 0.10E+00   14.3     0.00000126      -237.9735740227  3.80E-07
    68 Broy./Diag. 0.10E+00   14.3     0.00000268      -237.9735742434 -2.21E-07
    69 Broy./Diag. 0.10E+00   14.2     0.00000088      -237.9735739235  3.20E-07
    70 Broy./Diag. 0.10E+00   14.2     0.00000259      -237.9735735962  3.27E-07
    71 Broy./Diag. 0.10E+00   14.1     0.00000130      -237.9735736147 -1.85E-08
    72 Broy./Diag. 0.10E+00   14.5     0.00000318      -237.9735735826  3.21E-08
    73 Broy./Diag. 0.10E+00   14.5     0.00001131      -237.9735740481 -4.65E-07
    74 Broy./Diag. 0.10E+00   14.5     0.00000873      -237.9735732181  8.30E-07
    75 Broy./Diag. 0.10E+00   14.4     0.00000523      -237.9735723097  9.08E-07
    76 Broy./Diag. 0.10E+00   14.4     0.00001111      -237.9735716385  6.71E-07
    77 Broy./Diag. 0.10E+00   14.4     0.00000648      -237.9735717986 -1.60E-07
    78 Broy./Diag. 0.10E+00   14.1     0.00000126      -237.9735717730  2.56E-08
    79 Broy./Diag. 0.10E+00   14.4     0.00000003      -237.9735717900 -1.70E-08

  *** SCF run converged in    79 steps ***


  Electronic density on regular grids:       -168.0000000000        0.0000000000
  Core density on regular grids:              167.9999999999       -0.0000000001
  Total charge density on r-space grids:       -0.0000000001
  Total charge density g-space grids:          -0.0000000001

  Overlap energy of the core charge distribution:               0.00000836868231
  Self energy of the core charge distribution:               -560.07033292413882
  Core Hamiltonian energy:                                    172.47486473849756
  Hartree energy:                                             221.70852866528119
  Exchange-correlation energy:                                -72.04537931664632
  Dispersion energy:                                           -0.03772957574913
  Electronic entropic energy:                                  -0.00353174594687
  Fermi energy:                                                -0.18327766132098

  Total energy:                                              -237.97357178999394

  outer SCF iter =    1 RMS gradient =   0.32E-07 energy =       -237.9735717900
  outer SCF loop converged in   1 iterations or   79 steps


  Integrated absolute spin density  :                               0.0029230298
  WARNING: S**2 computation does not yet treat fractional occupied orbitals

 *** WARNING in qs_loc_utils.F:1500 :: User requested the calculation of ***
 *** the localized wavefunction but the section LOCALIZE was not         ***
 *** specified. Localization will not be performed!                      ***


 -------------------------------------------------------------------------------
 -                                                                             -
 -  BSSE CALCULATION         FRAGMENT CONF: 01        FRAGMENT SUBCONF: 01     -
 -                           CHARGE =     0           MULTIPLICITY =     0     -
 -                                                                             -
 -                 ATOM INDEX                              ATOM NAME           -
 -                 ----------                              ---------           -
 -                     43                                   Na                 -
 -------------------------------------------------------------------------------

 *******************************************************************************
 *******************************************************************************
 **                                                                           **
 **     #####                         ##              ##                      **
 **    ##   ##            ##          ##              ##                      **
 **   ##     ##                       ##            ######                    **
 **   ##     ##  ##   ##  ##   #####  ##  ##   ####   ##    #####    #####    **
 **   ##     ##  ##   ##  ##  ##      ## ##   ##      ##   ##   ##  ##   ##   **
 **   ##  ## ##  ##   ##  ##  ##      ####     ###    ##   ######   ######    **
 **    ##  ###   ##   ##  ##  ##      ## ##      ##   ##   ##       ##        **
 **     #######   #####   ##   #####  ##  ##  ####    ##    #####   ##        **
 **           ##                                                    ##        **
 **                                                                           **
 **                                                ... make the atoms dance   **
 **                                                                           **
 **            Copyright (C) by CP2K developers group (2000-2022)             **
 **                      J. Chem. Phys. 152, 194103 (2020)                    **
 **                                                                           **
 *******************************************************************************

 *** WARNING in qs_environment.F:1470 :: More ADDED_MOs requested for beta ***
 *** spin than available.                                                  ***


 *** WARNING in qs_environment.F:1486 :: More added MOs requested than     ***
 *** available. The full set of unoccupied MOs will be used. Use           ***
 *** 'ADDED_MOS -1' to always use all available MOs and to get rid of this ***
 *** warning.                                                              ***



 TOTAL NUMBERS AND MAXIMUM NUMBERS

  Total number of            - Atomic kinds:                                   1
                             - Atoms:                                          1
                             - Shell sets:                                     1
                             - Shells:                                         5
                             - Primitive Cartesian functions:                  7
                             - Cartesian basis functions:                      9
                             - Spherical basis functions:                      9

  Maximum angular momentum of- Orbital basis functions:                        1
                             - Local part of the GTH pseudopotential:          2
                             - Non-local part of the GTH pseudopotential:      1


 SCF PARAMETERS         Density guess:                                    ATOMIC
                        --------------------------------------------------------
                        max_scf:                                             100
                        max_scf_history:                                       0
                        max_diis:                                              4
                        --------------------------------------------------------
                        eps_scf:                                        3.00E-07
                        eps_scf_history:                                0.00E+00
                        eps_diis:                                       1.00E-01
                        eps_eigval:                                     1.00E-05
                        --------------------------------------------------------
                        level_shift [a.u.]:                             0.000000
                        added MOs                                         4    5
                        --------------------------------------------------------
                        Mixing method:                            BROYDEN_MIXING
                                                charge density mixing in g-space
                        --------------------------------------------------------
                        Smear method:                                FERMI_DIRAC
                        Electronic temperature [K]:                        300.0
                        Electronic temperature [a.u.]:                  9.50E-04
                        Accuracy threshold:                             1.00E-10
                        --------------------------------------------------------
                        Outer loop SCF in use 
                        No variables optimised in outer loop
                        eps_scf                                         1.00E-06
                        max_scf                                              150
                        DIIS optimization
                        DIIS buffer length                                     3
                        step_size                                       5.00E-01

 Spin 1

 Number of electrons:                                                          5
 Number of occupied orbitals:                                                  5
 Number of molecular orbitals:                                                 9

 Spin 2

 Number of electrons:                                                          4
 Number of occupied orbitals:                                                  4
 Number of molecular orbitals:                                                 9

 Number of orbital functions:                                                  9
 Number of independent orbital functions:                                      9

 Extrapolation method: initial_guess


 SCF WAVEFUNCTION OPTIMIZATION

  Step     Update method      Time    Convergence         Total energy    Change
  ------------------------------------------------------------------------------
     1 NoMix/Diag. 0.10E+00    3.4     0.42045394       -47.1708060776 -4.72E+01
     2 Broy./Diag. 0.10E+00    7.8     0.00688692       -47.1304550658  4.04E-02
     3 Broy./Diag. 0.10E+00    8.2     0.02089444       -47.1716951552 -4.12E-02
     4 Broy./Diag. 0.10E+00    8.3     0.00033285       -47.1628703926  8.82E-03
     5 Broy./Diag. 0.10E+00    8.4     0.12602278       -47.1730905768 -1.02E-02
     6 Broy./Diag. 0.10E+00    8.6     0.01743080       -46.7615984311  4.11E-01
     7 Broy./Diag. 0.10E+00    8.8     0.00410969       -46.7489981646  1.26E-02
     8 Broy./Diag. 0.10E+00    9.2     0.01074052       -46.7614946169 -1.25E-02
     9 Broy./Diag. 0.10E+00    9.4     0.04223863       -46.8620329085 -1.01E-01
    10 Broy./Diag. 0.10E+00    9.8     0.01801466       -47.0178625815 -1.56E-01
    11 Broy./Diag. 0.10E+00   10.3     0.00573080       -47.0895867877 -7.17E-02
    12 Broy./Diag. 0.10E+00   10.7     0.01462953       -47.1128020200 -2.32E-02
    13 Broy./Diag. 0.10E+00   11.2     0.01941418       -47.1616820437 -4.89E-02
    14 Broy./Diag. 0.10E+00   11.7     0.00352491       -47.2189188667 -5.72E-02
    15 Broy./Diag. 0.10E+00   12.1     0.01271737       -47.1786151517  4.03E-02
    16 Broy./Diag. 0.10E+00   12.8     0.00881296       -47.1604074901  1.82E-02
    17 Broy./Diag. 0.10E+00   13.5     0.00235941       -47.1930972361 -3.27E-02
    18 Broy./Diag. 0.10E+00   13.4     0.00170753       -47.2074724336 -1.44E-02
    19 Broy./Diag. 0.10E+00   13.4     0.00781158       -47.2266425061 -1.92E-02
    20 Broy./Diag. 0.10E+00   13.4     0.00218328       -47.2711647928 -4.45E-02
    21 Broy./Diag. 0.10E+00   13.4     0.00049258       -47.2793098539 -8.15E-03
    22 Broy./Diag. 0.10E+00   13.3     0.00069397       -47.2869148139 -7.60E-03
    23 Broy./Diag. 0.10E+00   13.4     0.01254929       -47.2922558373 -5.34E-03
    24 Broy./Diag. 0.10E+00   13.4     0.00172991       -47.2233754147  6.89E-02
    25 Broy./Diag. 0.10E+00   13.4     0.00006455       -47.2154129205  7.96E-03
    26 Broy./Diag. 0.10E+00   13.3     0.00016389       -47.2185378284 -3.12E-03
    27 Broy./Diag. 0.10E+00   13.3     0.00235675       -47.2199809864 -1.44E-03
    28 Broy./Diag. 0.10E+00   13.3     0.00013492       -47.2288150516 -8.83E-03
    29 Broy./Diag. 0.10E+00   13.3     0.00016268       -47.2315692956 -2.75E-03
    30 Broy./Diag. 0.10E+00   13.3     0.00035828       -47.2333972731 -1.83E-03
    31 Broy./Diag. 0.10E+00   13.3     0.00076269       -47.2300463272  3.35E-03
    32 Broy./Diag. 0.10E+00   13.4     0.00154771       -47.2322679420 -2.22E-03
    33 Broy./Diag. 0.10E+00   13.3     0.00585543       -47.2392716570 -7.00E-03
    34 Broy./Diag. 0.10E+00   13.3     0.00200586       -47.2649408219 -2.57E-02
    35 Broy./Diag. 0.10E+00   13.3     0.00032625       -47.2726802209 -7.74E-03
    36 Broy./Diag. 0.10E+00   13.3     0.00038194       -47.2647400080  7.94E-03
    37 Broy./Diag. 0.10E+00   13.3     0.00043401       -47.2457003409  1.90E-02
    38 Broy./Diag. 0.10E+00   13.3     0.00064595       -47.2270158514  1.87E-02
    39 Broy./Diag. 0.10E+00   13.3     0.00037682       -47.2103964072  1.66E-02
    40 Broy./Diag. 0.10E+00   13.3     0.00023725       -47.1975178004  1.29E-02
    41 Broy./Diag. 0.10E+00   13.3     0.00012001       -47.1903486044  7.17E-03
    42 Broy./Diag. 0.10E+00   13.3     0.00011220       -47.1845673216  5.78E-03
    43 Broy./Diag. 0.10E+00   13.3     0.00014593       -47.1770420511  7.53E-03
    44 Broy./Diag. 0.10E+00   13.3     0.00010907       -47.1713294328  5.71E-03
    45 Broy./Diag. 0.10E+00   13.3     0.00007037       -47.1673338929  4.00E-03
    46 Broy./Diag. 0.10E+00   13.3     0.00003077       -47.1654394161  1.89E-03
    47 Broy./Diag. 0.10E+00   13.3     0.00003313       -47.1645181948  9.21E-04
    48 Broy./Diag. 0.10E+00   13.3     0.00000504       -47.1641431497  3.75E-04
    49 Broy./Diag. 0.10E+00   13.3     0.00001203       -47.1648472816 -7.04E-04
    50 Broy./Diag. 0.10E+00   13.2     0.00017192       -47.1645411713  3.06E-04
    51 Broy./Diag. 0.10E+00   13.3     0.00006145       -47.1649502791 -4.09E-04
    52 Broy./Diag. 0.10E+00   13.3     0.00004420       -47.1650411768 -9.09E-05
    53 Broy./Diag. 0.10E+00   13.3     0.00004352       -47.1651690503 -1.28E-04
    54 Broy./Diag. 0.10E+00   13.3     0.00002941       -47.1649729973  1.96E-04
    55 Broy./Diag. 0.10E+00   13.3     0.00008921       -47.1653220500 -3.49E-04
    56 Broy./Diag. 0.10E+00   13.3     0.00002760       -47.1652524792  6.96E-05
    57 Broy./Diag. 0.10E+00   13.3     0.00000667       -47.1650293567  2.23E-04
    58 Broy./Diag. 0.10E+00   13.3     0.00000390       -47.1647563703  2.73E-04
    59 Broy./Diag. 0.10E+00   13.3     0.00013549       -47.1646498046  1.07E-04
    60 Broy./Diag. 0.10E+00   13.3     0.00001511       -47.1649076175 -2.58E-04
    61 Broy./Diag. 0.10E+00   13.3     0.00009086       -47.1650606518 -1.53E-04
    62 Broy./Diag. 0.10E+00   13.3     0.00018043       -47.1655373003 -4.77E-04
    63 Broy./Diag. 0.10E+00   13.2     0.00001606       -47.1657195378 -1.82E-04
    64 Broy./Diag. 0.10E+00   13.2     0.00000698       -47.1655471556  1.72E-04
    65 Broy./Diag. 0.10E+00   13.3     0.00000638       -47.1651939601  3.53E-04
    66 Broy./Diag. 0.10E+00   13.3     0.00001346       -47.1650014011  1.93E-04
    67 Broy./Diag. 0.10E+00   13.3     0.00008976       -47.1649102149  9.12E-05
    68 Broy./Diag. 0.10E+00   13.3     0.00005974       -47.1649980670 -8.79E-05
    69 Broy./Diag. 0.10E+00   13.3     0.00007511       -47.1652163185 -2.18E-04
    70 Broy./Diag. 0.10E+00   13.3     0.00005865       -47.1648750752  3.41E-04
    71 Broy./Diag. 0.10E+00   13.3     0.00005928       -47.1651385186 -2.63E-04
    72 Broy./Diag. 0.10E+00   13.3     0.00006553       -47.1648515201  2.87E-04
    73 Broy./Diag. 0.10E+00   13.3     0.00002324       -47.1651149028 -2.63E-04
    74 Broy./Diag. 0.10E+00   13.3     0.00002220       -47.1650690669  4.58E-05
    75 Broy./Diag. 0.10E+00   13.3     0.00008962       -47.1650824686 -1.34E-05
    76 Broy./Diag. 0.10E+00   13.3     0.00001008       -47.1653400488 -2.58E-04
    77 Broy./Diag. 0.10E+00   13.3     0.00005123       -47.1653149272  2.51E-05
    78 Broy./Diag. 0.10E+00   13.3     0.00002670       -47.1652648083  5.01E-05
    79 Broy./Diag. 0.10E+00   13.3     0.00001203       -47.1651658805  9.89E-05
    80 Broy./Diag. 0.10E+00   13.3     0.00001419       -47.1651583782  7.50E-06
    81 Broy./Diag. 0.10E+00   13.3     0.00003750       -47.1651977620 -3.94E-05
    82 Broy./Diag. 0.10E+00   13.3     0.00003865       -47.1651115222  8.62E-05
    83 Broy./Diag. 0.10E+00   13.3     0.00003276       -47.1652353007 -1.24E-04
    84 Broy./Diag. 0.10E+00   13.3     0.00001113       -47.1651348918  1.00E-04
    85 Broy./Diag. 0.10E+00   13.3     0.00007533       -47.1652728538 -1.38E-04
    86 Broy./Diag. 0.10E+00   13.3     0.00000098       -47.1655956740 -3.23E-04
    87 Broy./Diag. 0.10E+00   13.3     0.00000512       -47.1656242940 -2.86E-05
    88 Broy./Diag. 0.10E+00   13.3     0.00000541       -47.1656541344 -2.98E-05
    89 Broy./Diag. 0.10E+00   13.3     0.00010645       -47.1656143836  3.98E-05
    90 Broy./Diag. 0.10E+00   13.3     0.00002608       -47.1657733724 -1.59E-04
    91 Broy./Diag. 0.10E+00   13.3     0.00000522       -47.1656016480  1.72E-04
    92 Broy./Diag. 0.10E+00   13.3     0.00001451       -47.1654767050  1.25E-04
    93 Broy./Diag. 0.10E+00   13.3     0.00004458       -47.1653517934  1.25E-04
    94 Broy./Diag. 0.10E+00   13.3     0.00001235       -47.1651785177  1.73E-04
    95 Broy./Diag. 0.10E+00   13.3     0.00001230       -47.1650562301  1.22E-04
    96 Broy./Diag. 0.10E+00   13.3     0.00000969       -47.1649530773  1.03E-04
    97 Broy./Diag. 0.10E+00   13.3     0.00000519       -47.1648922650  6.08E-05
    98 Broy./Diag. 0.10E+00   13.3     0.00002505       -47.1648622515  3.00E-05
    99 Broy./Diag. 0.10E+00   13.2     0.00003157       -47.1649106353 -4.84E-05
   100 Broy./Diag. 0.10E+00   13.3     0.00001804       -47.1650748966 -1.64E-04

  Leaving inner SCF loop after reaching   100 steps.


  Electronic density on regular grids:         -9.0000017908       -0.0000017908
  Core density on regular grids:                9.0000000000       -0.0000000000
  Total charge density on r-space grids:       -0.0000017908
  Total charge density g-space grids:          -0.0000017908

  Overlap energy of the core charge distribution:               0.00000000000000
  Self energy of the core charge distribution:                -96.60649019442629
  Core Hamiltonian energy:                                     29.76222951913431
  Hartree energy:                                              26.73421510195337
  Exchange-correlation energy:                                 -7.05502048874927
  Dispersion energy:                                           -0.00000883455364
  Electronic entropic energy:                                  -0.00000000000000
  Fermi energy:                                                -0.05281441946647

  Total energy:                                               -47.16507489664152

  outer SCF iter =    1 RMS gradient =   0.18E-04 energy =        -47.1650748966
     1 Broy./Diag. 0.10E+00   18.9     0.00006220       -47.1648717119  2.03E-04
     2 Broy./Diag. 0.10E+00   13.2     0.00006714       -47.1653334981 -4.62E-04
     3 Broy./Diag. 0.10E+00   13.2     0.00000813       -47.1651169898  2.17E-04
     4 Broy./Diag. 0.10E+00   13.2     0.00000408       -47.1651287748 -1.18E-05
     5 Broy./Diag. 0.10E+00   13.2     0.00000825       -47.1651379955 -9.22E-06
     6 Broy./Diag. 0.10E+00   13.2     0.00000187       -47.1651586649 -2.07E-05
     7 Broy./Diag. 0.10E+00   13.2     0.00000337       -47.1651632413 -4.58E-06
     8 Broy./Diag. 0.10E+00   13.2     0.00000353       -47.1651660879 -2.85E-06
     9 Broy./Diag. 0.10E+00   13.2     0.00000213       -47.1651811468 -1.51E-05
    10 Broy./Diag. 0.10E+00   13.2     0.00000126       -47.1651961372 -1.50E-05
    11 Broy./Diag. 0.10E+00   13.2     0.00000080       -47.1652009522 -4.82E-06
    12 Broy./Diag. 0.10E+00   13.1     0.00000068       -47.1652009109  4.13E-08
    13 Broy./Diag. 0.10E+00   13.1     0.00000224       -47.1652028195 -1.91E-06
    14 Broy./Diag. 0.10E+00   13.2     0.00000211       -47.1651823130  2.05E-05
    15 Broy./Diag. 0.10E+00   13.1     0.00000107       -47.1651279575  5.44E-05
    16 Broy./Diag. 0.10E+00   13.2     0.00000142       -47.1650616222  6.63E-05
    17 Broy./Diag. 0.10E+00   13.2     0.00000094       -47.1650212764  4.03E-05
    18 Broy./Diag. 0.10E+00   13.2     0.00000091       -47.1649733345  4.79E-05
    19 Broy./Diag. 0.10E+00   13.2     0.00000048       -47.1649683419  4.99E-06
    20 Broy./Diag. 0.10E+00   13.2     0.00000079       -47.1649286027  3.97E-05
    21 Broy./Diag. 0.10E+00   13.2     0.00000198       -47.1648833799  4.52E-05
    22 Broy./Diag. 0.10E+00   13.2     0.00000087       -47.1648593180  2.41E-05
    23 Broy./Diag. 0.10E+00   13.2     0.00000197       -47.1648499390  9.38E-06
    24 Broy./Diag. 0.10E+00   13.2     0.00000187       -47.1648411538  8.79E-06
    25 Broy./Diag. 0.10E+00   13.2     0.00000285       -47.1648505850 -9.43E-06
    26 Broy./Diag. 0.10E+00   13.2     0.00000121       -47.1648532910 -2.71E-06
    27 Broy./Diag. 0.10E+00   13.2     0.00000051       -47.1648490883  4.20E-06
    28 Broy./Diag. 0.10E+00   13.2     0.00000115       -47.1648481267  9.62E-07
    29 Broy./Diag. 0.10E+00   13.2     0.00000059       -47.1648666258 -1.85E-05
    30 Broy./Diag. 0.10E+00   13.3     0.00000078       -47.1648753996 -8.77E-06
    31 Broy./Diag. 0.10E+00   13.2     0.00000215       -47.1648771327 -1.73E-06
    32 Broy./Diag. 0.10E+00   13.2     0.00000159       -47.1648755416  1.59E-06
    33 Broy./Diag. 0.10E+00   13.2     0.00000040       -47.1648716493  3.89E-06
    34 Broy./Diag. 0.10E+00   13.2     0.00000058       -47.1648725347 -8.85E-07
    35 Broy./Diag. 0.10E+00   13.2     0.00000083       -47.1648720835  4.51E-07
    36 Broy./Diag. 0.10E+00   13.2     0.00000064       -47.1648742565 -2.17E-06
    37 Broy./Diag. 0.10E+00   13.2     0.00000197       -47.1648652622  8.99E-06
    38 Broy./Diag. 0.10E+00   13.2     0.00000399       -47.1648634864  1.78E-06
    39 Broy./Diag. 0.10E+00   13.2     0.00000077       -47.1648656438 -2.16E-06
    40 Broy./Diag. 0.10E+00   13.2     0.00000273       -47.1648682921 -2.65E-06
    41 Broy./Diag. 0.10E+00   13.1     0.00001594       -47.1648697449 -1.45E-06
    42 Broy./Diag. 0.10E+00   13.1     0.00000179       -47.1648973209 -2.76E-05
    43 Broy./Diag. 0.10E+00   13.1     0.00000137       -47.1648872873  1.00E-05
    44 Broy./Diag. 0.10E+00   13.1     0.00000437       -47.1648847566  2.53E-06
    45 Broy./Diag. 0.10E+00   13.1     0.00000340       -47.1648951929 -1.04E-05
    46 Broy./Diag. 0.10E+00   13.1     0.00000374       -47.1648869323  8.26E-06
    47 Broy./Diag. 0.10E+00   13.1     0.00000043       -47.1648802613  6.67E-06
    48 Broy./Diag. 0.10E+00   13.1     0.00000155       -47.1648812657 -1.00E-06
    49 Broy./Diag. 0.10E+00   13.1     0.00000033       -47.1648874111 -6.15E-06
    50 Broy./Diag. 0.10E+00   13.1     0.00000146       -47.1648901273 -2.72E-06
    51 Broy./Diag. 0.10E+00   13.1     0.00000118       -47.1648903810 -2.54E-07
    52 Broy./Diag. 0.10E+00   13.1     0.00000246       -47.1648920398 -1.66E-06
    53 Broy./Diag. 0.10E+00   13.1     0.00000115       -47.1649025020 -1.05E-05
    54 Broy./Diag. 0.10E+00   13.1     0.00000051       -47.1649054562 -2.95E-06
    55 Broy./Diag. 0.10E+00   13.0     0.00000037       -47.1649028277  2.63E-06
    56 Broy./Diag. 0.10E+00   13.1     0.00000066       -47.1649021614  6.66E-07
    57 Broy./Diag. 0.10E+00   13.1     0.00000118       -47.1649028841 -7.23E-07
    58 Broy./Diag. 0.10E+00   13.0     0.00000200       -47.1649055346 -2.65E-06
    59 Broy./Diag. 0.10E+00   13.0     0.00000295       -47.1649100195 -4.48E-06
    60 Broy./Diag. 0.10E+00   13.1     0.00000089       -47.1649169726 -6.95E-06
    61 Broy./Diag. 0.10E+00   13.0     0.00000035       -47.1649228074 -5.83E-06
    62 Broy./Diag. 0.10E+00   13.0     0.00000173       -47.1649227529  5.45E-08
    63 Broy./Diag. 0.10E+00   13.0     0.00000085       -47.1649294156 -6.66E-06
    64 Broy./Diag. 0.10E+00   13.1     0.00000051       -47.1649237460  5.67E-06
    65 Broy./Diag. 0.10E+00   13.1     0.00000116       -47.1649194719  4.27E-06
    66 Broy./Diag. 0.10E+00   13.0     0.00000144       -47.1649214350 -1.96E-06
    67 Broy./Diag. 0.10E+00   13.1     0.00000048       -47.1649205262  9.09E-07
    68 Broy./Diag. 0.10E+00   13.0     0.00000042       -47.1649172033  3.32E-06
    69 Broy./Diag. 0.10E+00   12.9     0.00000144       -47.1649120410  5.16E-06
    70 Broy./Diag. 0.10E+00   13.0     0.00000082       -47.1649133649 -1.32E-06
    71 Broy./Diag. 0.10E+00   13.0     0.00000038       -47.1649184460 -5.08E-06
    72 Broy./Diag. 0.10E+00   13.0     0.00000025       -47.1649196999 -1.25E-06

  *** SCF run converged in    72 steps ***


  Electronic density on regular grids:         -9.0000017908       -0.0000017908
  Core density on regular grids:                9.0000000000       -0.0000000000
  Total charge density on r-space grids:       -0.0000017908
  Total charge density g-space grids:          -0.0000017908

  Overlap energy of the core charge distribution:               0.00000000000000
  Self energy of the core charge distribution:                -96.60649019442629
  Core Hamiltonian energy:                                     29.76201757943686
  Hartree energy:                                              26.73452081549446
  Exchange-correlation energy:                                 -7.05495906587641
  Dispersion energy:                                           -0.00000883455364
  Electronic entropic energy:                                  -0.00000000000000
  Fermi energy:                                                -0.06736988123270

  Total energy:                                               -47.16491969992502

  outer SCF iter =    2 RMS gradient =   0.25E-06 energy =        -47.1649196999
  outer SCF loop converged in   2 iterations or  172 steps


  Integrated absolute spin density  :                               1.0000457567
  WARNING: S**2 computation does not yet treat fractional occupied orbitals

 *** WARNING in qs_loc_utils.F:1500 :: User requested the calculation of ***
 *** the localized wavefunction but the section LOCALIZE was not         ***
 *** specified. Localization will not be performed!                      ***


 -------------------------------------------------------------------------------
 -                                                                             -
 -  BSSE CALCULATION         FRAGMENT CONF: 11        FRAGMENT SUBCONF: 10     -
 -                           CHARGE =     0           MULTIPLICITY =     0     -
 -                                                                             -
 -                 ATOM INDEX                              ATOM NAME           -
 -                 ----------                              ---------           -
 -                      1                                   C                  -
 -                      2                                   C                  -
 -                      3                                   C                  -
 -                      4                                   C                  -
 -                      5                                   C                  -
 -                      6                                   C                  -
 -                      7                                   C                  -
 -                      8                                   C                  -
 -                      9                                   C                  -
 -                     10                                   C                  -
 -                     11                                   C                  -
 -                     12                                   C                  -
 -                     13                                   C                  -
 -                     14                                   C                  -
 -                     15                                   C                  -
 -                     16                                   C                  -
 -                     17                                   C                  -
 -                     18                                   C                  -
 -                     19                                   C                  -
 -                     20                                   C                  -
 -                     21                                   C                  -
 -                     22                                   C                  -
 -                     23                                   C                  -
 -                     24                                   C                  -
 -                     25                                   C                  -
 -                     26                                   C                  -
 -                     27                                   C                  -
 -                     28                                   C                  -
 -                     29                                   C                  -
 -                     30                                   C                  -
 -                     31                                   C                  -
 -                     32                                   C                  -
 -                     33                                   C                  -
 -                     34                                   C                  -
 -                     35                                   C                  -
 -                     36                                   C                  -
 -                     37                                   C                  -
 -                     38                                   C                  -
 -                     39                                   C                  -
 -                     40                                   C                  -
 -                     41                                   C                  -
 -                     42                                   C                  -
 -                     43                                   Na_ghost           -
 -------------------------------------------------------------------------------

 *******************************************************************************
 *******************************************************************************
 **                                                                           **
 **     #####                         ##              ##                      **
 **    ##   ##            ##          ##              ##                      **
 **   ##     ##                       ##            ######                    **
 **   ##     ##  ##   ##  ##   #####  ##  ##   ####   ##    #####    #####    **
 **   ##     ##  ##   ##  ##  ##      ## ##   ##      ##   ##   ##  ##   ##   **
 **   ##  ## ##  ##   ##  ##  ##      ####     ###    ##   ######   ######    **
 **    ##  ###   ##   ##  ##  ##      ## ##      ##   ##   ##       ##        **
 **     #######   #####   ##   #####  ##  ##  ####    ##    #####   ##        **
 **           ##                                                    ##        **
 **                                                                           **
 **                                                ... make the atoms dance   **
 **                                                                           **
 **            Copyright (C) by CP2K developers group (2000-2022)             **
 **                      J. Chem. Phys. 152, 194103 (2020)                    **
 **                                                                           **
 *******************************************************************************


 TOTAL NUMBERS AND MAXIMUM NUMBERS

  Total number of            - Atomic kinds:                                   2
                             - Atoms:                                         43
                             - Shell sets:                                    43
                             - Shells:                                       215
                             - Primitive Cartesian functions:                217
                             - Cartesian basis functions:                    597
                             - Spherical basis functions:                    555

  Maximum angular momentum of- Orbital basis functions:                        2
                             - Local part of the GTH pseudopotential:          2
                             - Non-local part of the GTH pseudopotential:      0


 SCF PARAMETERS         Density guess:                                    ATOMIC
                        --------------------------------------------------------
                        max_scf:                                             100
                        max_scf_history:                                       0
                        max_diis:                                              4
                        --------------------------------------------------------
                        eps_scf:                                        3.00E-07
                        eps_scf_history:                                0.00E+00
                        eps_diis:                                       1.00E-01
                        eps_eigval:                                     1.00E-05
                        --------------------------------------------------------
                        level_shift [a.u.]:                             0.000000
                        added MOs                                       100  100
                        --------------------------------------------------------
                        Mixing method:                            BROYDEN_MIXING
                                                charge density mixing in g-space
                        --------------------------------------------------------
                        Smear method:                                FERMI_DIRAC
                        Electronic temperature [K]:                        300.0
                        Electronic temperature [a.u.]:                  9.50E-04
                        Accuracy threshold:                             1.00E-10
                        --------------------------------------------------------
                        Outer loop SCF in use 
                        No variables optimised in outer loop
                        eps_scf                                         1.00E-06
                        max_scf                                              150
                        DIIS optimization
                        DIIS buffer length                                     3
                        step_size                                       5.00E-01

 Spin 1

 Number of electrons:                                                         84
 Number of occupied orbitals:                                                 84
 Number of molecular orbitals:                                               184

 Spin 2

 Number of electrons:                                                         84
 Number of occupied orbitals:                                                 84
 Number of molecular orbitals:                                               184

 Number of orbital functions:                                                555
 Number of independent orbital functions:                                    555

 Extrapolation method: initial_guess


 SCF WAVEFUNCTION OPTIMIZATION

  Step     Update method      Time    Convergence         Total energy    Change
  ------------------------------------------------------------------------------
     1 NoMix/Diag. 0.10E+00    4.0     0.46361000      -236.0468780821 -2.36E+02
     2 Broy./Diag. 0.10E+00    8.2     0.01180606      -229.6144174039  6.43E+00
     3 Broy./Diag. 0.10E+00    8.6     0.06102082      -234.0709120225 -4.46E+00
     4 Broy./Diag. 0.10E+00    8.7     0.00957847      -236.6827611573 -2.61E+00
     5 Broy./Diag. 0.10E+00    8.8     0.02446104      -237.3416274089 -6.59E-01
     6 Broy./Diag. 0.10E+00    9.0     0.00569893      -237.6008693880 -2.59E-01
     7 Broy./Diag. 0.10E+00    9.3     0.01253665      -237.6958834893 -9.50E-02
     8 Broy./Diag. 0.10E+00    9.5     0.00527420      -237.7729368297 -7.71E-02
     9 Broy./Diag. 0.10E+00    9.9     0.00328512      -237.8065453345 -3.36E-02
    10 Broy./Diag. 0.10E+00   10.2     0.00390793      -237.8368337194 -3.03E-02
    11 Broy./Diag. 0.10E+00   10.6     0.00580612      -237.8733594202 -3.65E-02
    12 Broy./Diag. 0.10E+00   11.1     0.00352204      -237.8834005366 -1.00E-02
    13 Broy./Diag. 0.10E+00   11.5     0.00121302      -237.9003520905 -1.70E-02
    14 Broy./Diag. 0.10E+00   12.1     0.00135076      -237.9153134984 -1.50E-02
    15 Broy./Diag. 0.10E+00   12.5     0.00032123      -237.9347239341 -1.94E-02
    16 Broy./Diag. 0.10E+00   13.2     0.00107959      -237.9472306745 -1.25E-02
    17 Broy./Diag. 0.10E+00   13.8     0.00052099      -237.9565979296 -9.37E-03
    18 Broy./Diag. 0.10E+00   13.8     0.00057754      -237.9624341028 -5.84E-03
    19 Broy./Diag. 0.10E+00   13.8     0.00022311      -237.9647086494 -2.27E-03
    20 Broy./Diag. 0.10E+00   13.8     0.00015437      -237.9654570565 -7.48E-04
    21 Broy./Diag. 0.10E+00   13.8     0.00031725      -237.9655934927 -1.36E-04
    22 Broy./Diag. 0.10E+00   13.7     0.00019611      -237.9645061830  1.09E-03
    23 Broy./Diag. 0.10E+00   13.8     0.00007639      -237.9649274627 -4.21E-04
    24 Broy./Diag. 0.10E+00   13.8     0.00009243      -237.9669910431 -2.06E-03
    25 Broy./Diag. 0.10E+00   13.8     0.00006609      -237.9703320273 -3.34E-03
    26 Broy./Diag. 0.10E+00   13.8     0.00005509      -237.9729504917 -2.62E-03
    27 Broy./Diag. 0.10E+00   13.8     0.00005255      -237.9749217492 -1.97E-03
    28 Broy./Diag. 0.10E+00   13.8     0.00004780      -237.9759743164 -1.05E-03
    29 Broy./Diag. 0.10E+00   13.8     0.00004610      -237.9762349622 -2.61E-04
    30 Broy./Diag. 0.10E+00   13.9     0.00006662      -237.9762117740  2.32E-05
    31 Broy./Diag. 0.10E+00   13.9     0.00005264      -237.9760784733  1.33E-04
    32 Broy./Diag. 0.10E+00   13.9     0.00004534      -237.9760194578  5.90E-05
    33 Broy./Diag. 0.10E+00   13.9     0.00006726      -237.9760680834 -4.86E-05
    34 Broy./Diag. 0.10E+00   13.9     0.00005192      -237.9762029463 -1.35E-04
    35 Broy./Diag. 0.10E+00   13.9     0.00004160      -237.9762729342 -7.00E-05
    36 Broy./Diag. 0.10E+00   13.9     0.00000993      -237.9762884273 -1.55E-05
    37 Broy./Diag. 0.10E+00   14.0     0.00001120      -237.9763337522 -4.53E-05
    38 Broy./Diag. 0.10E+00   14.1     0.00003903      -237.9763984373 -6.47E-05
    39 Broy./Diag. 0.10E+00   14.0     0.00001885      -237.9765105165 -1.12E-04
    40 Broy./Diag. 0.10E+00   14.0     0.00003075      -237.9766150123 -1.04E-04
    41 Broy./Diag. 0.10E+00   14.0     0.00003499      -237.9766544371 -3.94E-05
    42 Broy./Diag. 0.10E+00   14.0     0.00003644      -237.9766778993 -2.35E-05
    43 Broy./Diag. 0.10E+00   14.0     0.00000241      -237.9766882799 -1.04E-05
    44 Broy./Diag. 0.10E+00   14.1     0.00005212      -237.9766746625  1.36E-05
    45 Broy./Diag. 0.10E+00   14.1     0.00003926      -237.9766618593  1.28E-05
    46 Broy./Diag. 0.10E+00   14.1     0.00004123      -237.9766385964  2.33E-05
    47 Broy./Diag. 0.10E+00   14.1     0.00004065      -237.9766319700  6.63E-06
    48 Broy./Diag. 0.10E+00   14.1     0.00002611      -237.9766249083  7.06E-06
    49 Broy./Diag. 0.10E+00   14.1     0.00002354      -237.9766263727 -1.46E-06
    50 Broy./Diag. 0.10E+00   14.0     0.00001768      -237.9766387738 -1.24E-05
    51 Broy./Diag. 0.10E+00   14.1     0.00000126      -237.9766515725 -1.28E-05
    52 Broy./Diag. 0.10E+00   14.1     0.00000588      -237.9766617574 -1.02E-05
    53 Broy./Diag. 0.10E+00   14.1     0.00002133      -237.9766696271 -7.87E-06
    54 Broy./Diag. 0.10E+00   14.1     0.00001870      -237.9766717211 -2.09E-06
    55 Broy./Diag. 0.10E+00   14.1     0.00002515      -237.9766653298  6.39E-06
    56 Broy./Diag. 0.10E+00   14.1     0.00001306      -237.9766594531  5.88E-06
    57 Broy./Diag. 0.10E+00   14.0     0.00000588      -237.9766587392  7.14E-07
    58 Broy./Diag. 0.10E+00   14.1     0.00001234      -237.9766554657  3.27E-06
    59 Broy./Diag. 0.10E+00   14.1     0.00001016      -237.9766533010  2.16E-06
    60 Broy./Diag. 0.10E+00   14.1     0.00000726      -237.9766533095 -8.49E-09
    61 Broy./Diag. 0.10E+00   14.1     0.00000762      -237.9766535818 -2.72E-07
    62 Broy./Diag. 0.10E+00   14.1     0.00000066      -237.9766529740  6.08E-07
    63 Broy./Diag. 0.10E+00   14.0     0.00000171      -237.9766525344  4.40E-07
    64 Broy./Diag. 0.10E+00   14.1     0.00000117      -237.9766521069  4.28E-07
    65 Broy./Diag. 0.10E+00   14.1     0.00000106      -237.9766509921  1.11E-06
    66 Broy./Diag. 0.10E+00   14.1     0.00000068      -237.9766503366  6.56E-07
    67 Broy./Diag. 0.10E+00   14.1     0.00000236      -237.9766494963  8.40E-07
    68 Broy./Diag. 0.10E+00   14.1     0.00000182      -237.9766490963  4.00E-07
    69 Broy./Diag. 0.10E+00   14.1     0.00000497      -237.9766490308  6.54E-08
    70 Broy./Diag. 0.10E+00   14.1     0.00000038      -237.9766489572  7.36E-08
    71 Broy./Diag. 0.10E+00   14.1     0.00001019      -237.9766491072 -1.50E-07
    72 Broy./Diag. 0.10E+00   14.1     0.00000852      -237.9766483275  7.80E-07
    73 Broy./Diag. 0.10E+00   14.1     0.00001660      -237.9766463923  1.94E-06
    74 Broy./Diag. 0.10E+00   14.1     0.00000291      -237.9766468618 -4.70E-07
    75 Broy./Diag. 0.10E+00   14.1     0.00000340      -237.9766474635 -6.02E-07
    76 Broy./Diag. 0.10E+00   14.1     0.00000544      -237.9766469222  5.41E-07
    77 Broy./Diag. 0.10E+00   14.1     0.00000255      -237.9766467742  1.48E-07
    78 Broy./Diag. 0.10E+00   14.1     0.00000853      -237.9766450953  1.68E-06
    79 Broy./Diag. 0.10E+00   14.1     0.00000047      -237.9766455258 -4.31E-07
    80 Broy./Diag. 0.10E+00   14.1     0.00000169      -237.9766450881  4.38E-07
    81 Broy./Diag. 0.10E+00   14.1     0.00000329      -237.9766455132 -4.25E-07
    82 Broy./Diag. 0.10E+00   14.1     0.00000110      -237.9766455014  1.18E-08
    83 Broy./Diag. 0.10E+00   14.1     0.00000294      -237.9766454970  4.44E-09
    84 Broy./Diag. 0.10E+00   14.1     0.00000064      -237.9766455257 -2.87E-08
    85 Broy./Diag. 0.10E+00   14.1     0.00000337      -237.9766452235  3.02E-07
    86 Broy./Diag. 0.10E+00   14.1     0.00000321      -237.9766447571  4.66E-07
    87 Broy./Diag. 0.10E+00   14.1     0.00000209      -237.9766445110  2.46E-07
    88 Broy./Diag. 0.10E+00   14.1     0.00000418      -237.9766445472 -3.62E-08
    89 Broy./Diag. 0.10E+00   14.1     0.00000052      -237.9766445850 -3.78E-08
    90 Broy./Diag. 0.10E+00   14.1     0.00000060      -237.9766444567  1.28E-07
    91 Broy./Diag. 0.10E+00   14.1     0.00000034      -237.9766444007  5.60E-08
    92 Broy./Diag. 0.10E+00   14.1     0.00000099      -237.9766444576 -5.69E-08
    93 Broy./Diag. 0.10E+00   14.1     0.00000394      -237.9766451228 -6.65E-07
    94 Broy./Diag. 0.10E+00   14.1     0.00000432      -237.9766451314 -8.63E-09
    95 Broy./Diag. 0.10E+00   14.1     0.00000407      -237.9766449277  2.04E-07
    96 Broy./Diag. 0.10E+00   14.1     0.00000706      -237.9766448509  7.68E-08
    97 Broy./Diag. 0.10E+00   14.1     0.00000027      -237.9766447723  7.86E-08

  *** SCF run converged in    97 steps ***


  Electronic density on regular grids:       -168.0000000000        0.0000000000
  Core density on regular grids:              167.9999999999       -0.0000000001
  Total charge density on r-space grids:       -0.0000000001
  Total charge density g-space grids:          -0.0000000001

  Overlap energy of the core charge distribution:               0.00000836868231
  Self energy of the core charge distribution:               -560.07033292413882
  Core Hamiltonian energy:                                    172.45108080439411
  Hartree energy:                                             221.72074896770414
  Exchange-correlation energy:                                -72.03689640390508
  Dispersion energy:                                           -0.03772957574913
  Electronic entropic energy:                                  -0.00352400931802
  Fermi energy:                                                -0.18411888002473

  Total energy:                                              -237.97664477233900

  outer SCF iter =    1 RMS gradient =   0.27E-06 energy =       -237.9766447723
  outer SCF loop converged in   1 iterations or   97 steps


  Integrated absolute spin density  :                               0.0023332067
  WARNING: S**2 computation does not yet treat fractional occupied orbitals

 *** WARNING in qs_loc_utils.F:1500 :: User requested the calculation of ***
 *** the localized wavefunction but the section LOCALIZE was not         ***
 *** specified. Localization will not be performed!                      ***


 -------------------------------------------------------------------------------
 -                                                                             -
 -  BSSE CALCULATION         FRAGMENT CONF: 11        FRAGMENT SUBCONF: 01     -
 -                           CHARGE =     0           MULTIPLICITY =     0     -
 -                                                                             -
 -                 ATOM INDEX                              ATOM NAME           -
 -                 ----------                              ---------           -
 -                      1                                   C_ghost            -
 -                      2                                   C_ghost            -
 -                      3                                   C_ghost            -
 -                      4                                   C_ghost            -
 -                      5                                   C_ghost            -
 -                      6                                   C_ghost            -
 -                      7                                   C_ghost            -
 -                      8                                   C_ghost            -
 -                      9                                   C_ghost            -
 -                     10                                   C_ghost            -
 -                     11                                   C_ghost            -
 -                     12                                   C_ghost            -
 -                     13                                   C_ghost            -
 -                     14                                   C_ghost            -
 -                     15                                   C_ghost            -
 -                     16                                   C_ghost            -
 -                     17                                   C_ghost            -
 -                     18                                   C_ghost            -
 -                     19                                   C_ghost            -
 -                     20                                   C_ghost            -
 -                     21                                   C_ghost            -
 -                     22                                   C_ghost            -
 -                     23                                   C_ghost            -
 -                     24                                   C_ghost            -
 -                     25                                   C_ghost            -
 -                     26                                   C_ghost            -
 -                     27                                   C_ghost            -
 -                     28                                   C_ghost            -
 -                     29                                   C_ghost            -
 -                     30                                   C_ghost            -
 -                     31                                   C_ghost            -
 -                     32                                   C_ghost            -
 -                     33                                   C_ghost            -
 -                     34                                   C_ghost            -
 -                     35                                   C_ghost            -
 -                     36                                   C_ghost            -
 -                     37                                   C_ghost            -
 -                     38                                   C_ghost            -
 -                     39                                   C_ghost            -
 -                     40                                   C_ghost            -
 -                     41                                   C_ghost            -
 -                     42                                   C_ghost            -
 -                     43                                   Na                 -
 -------------------------------------------------------------------------------

 *******************************************************************************
 *******************************************************************************
 **                                                                           **
 **     #####                         ##              ##                      **
 **    ##   ##            ##          ##              ##                      **
 **   ##     ##                       ##            ######                    **
 **   ##     ##  ##   ##  ##   #####  ##  ##   ####   ##    #####    #####    **
 **   ##     ##  ##   ##  ##  ##      ## ##   ##      ##   ##   ##  ##   ##   **
 **   ##  ## ##  ##   ##  ##  ##      ####     ###    ##   ######   ######    **
 **    ##  ###   ##   ##  ##  ##      ## ##      ##   ##   ##       ##        **
 **     #######   #####   ##   #####  ##  ##  ####    ##    #####   ##        **
 **           ##                                                    ##        **
 **                                                                           **
 **                                                ... make the atoms dance   **
 **                                                                           **
 **            Copyright (C) by CP2K developers group (2000-2022)             **
 **                      J. Chem. Phys. 152, 194103 (2020)                    **
 **                                                                           **
 *******************************************************************************


 TOTAL NUMBERS AND MAXIMUM NUMBERS

  Total number of            - Atomic kinds:                                   2
                             - Atoms:                                         43
                             - Shell sets:                                    43
                             - Shells:                                       215
                             - Primitive Cartesian functions:                217
                             - Cartesian basis functions:                    597
                             - Spherical basis functions:                    555

  Maximum angular momentum of- Orbital basis functions:                        2
                             - Local part of the GTH pseudopotential:          2
                             - Non-local part of the GTH pseudopotential:      1


 SCF PARAMETERS         Density guess:                                    ATOMIC
                        --------------------------------------------------------
                        max_scf:                                             100
                        max_scf_history:                                       0
                        max_diis:                                              4
                        --------------------------------------------------------
                        eps_scf:                                        3.00E-07
                        eps_scf_history:                                0.00E+00
                        eps_diis:                                       1.00E-01
                        eps_eigval:                                     1.00E-05
                        --------------------------------------------------------
                        level_shift [a.u.]:                             0.000000
                        added MOs                                       100  100
                        --------------------------------------------------------
                        Mixing method:                            BROYDEN_MIXING
                                                charge density mixing in g-space
                        --------------------------------------------------------
                        Smear method:                                FERMI_DIRAC
                        Electronic temperature [K]:                        300.0
                        Electronic temperature [a.u.]:                  9.50E-04
                        Accuracy threshold:                             1.00E-10
                        --------------------------------------------------------
                        Outer loop SCF in use 
                        No variables optimised in outer loop
                        eps_scf                                         1.00E-06
                        max_scf                                              150
                        DIIS optimization
                        DIIS buffer length                                     3
                        step_size                                       5.00E-01

 Spin 1

 Number of electrons:                                                          5
 Number of occupied orbitals:                                                  5
 Number of molecular orbitals:                                               105

 Spin 2

 Number of electrons:                                                          4
 Number of occupied orbitals:                                                  4
 Number of molecular orbitals:                                               104

 Number of orbital functions:                                                555
 Number of independent orbital functions:                                    555

 Extrapolation method: initial_guess


 SCF WAVEFUNCTION OPTIMIZATION

  Step     Update method      Time    Convergence         Total energy    Change
[...]
    41 Broy./Diag. 0.10E+00   14.1     0.01997797      -284.8212179821  1.96E-02
    42 Broy./Diag. 0.10E+00   14.1     0.01361446      -284.8338346946 -1.26E-02
    43 Broy./Diag. 0.10E+00   14.1     0.07036763      -284.8482223154 -1.44E-02
    44 Broy./Diag. 0.10E+00   14.1     0.02799849      -284.9273640141 -7.91E-02
    45 Broy./Diag. 0.10E+00   14.1     0.10567292      -284.9509535926 -2.36E-02
    46 Broy./Diag. 0.10E+00   14.1     0.00935628      -284.8397645420  1.11E-01
    47 Broy./Diag. 0.10E+00   14.1     0.01833805      -284.8622758900 -2.25E-02
    48 Broy./Diag. 0.10E+00   14.1     0.01133000      -284.8360014812  2.63E-02
    49 Broy./Diag. 0.10E+00   14.1     0.01487554      -284.8247874008  1.12E-02
    50 Broy./Diag. 0.10E+00   14.1     0.01778974      -284.8200741491  4.71E-03
    51 Broy./Diag. 0.10E+00   14.1     0.01124322      -284.7897121545  3.04E-02
    52 Broy./Diag. 0.10E+00   14.1     0.00698773      -284.8183489961 -2.86E-02
    53 Broy./Diag. 0.10E+00   14.1     0.00570791      -284.8283426730 -9.99E-03
    54 Broy./Diag. 0.10E+00   14.1     0.01197839      -284.8251641905  3.18E-03
    55 Broy./Diag. 0.10E+00   14.1     0.01811243      -284.8289571857 -3.79E-03
    56 Broy./Diag. 0.10E+00   14.1     0.00907068      -284.8551274540 -2.62E-02
    57 Broy./Diag. 0.10E+00   14.1     0.00665310      -284.8498002960  5.33E-03
    58 Broy./Diag. 0.10E+00   14.1     0.00839051      -284.8448322103  4.97E-03
    59 Broy./Diag. 0.10E+00   14.1     0.00490249      -284.8478421303 -3.01E-03
    60 Broy./Diag. 0.10E+00   14.1     0.03344174      -284.8358285566  1.20E-02
    61 Broy./Diag. 0.10E+00   14.1     0.03970246      -284.8279536307  7.87E-03
    62 Broy./Diag. 0.10E+00   14.1     0.06330511      -284.8723480415 -4.44E-02
    63 Broy./Diag. 0.10E+00   14.1     0.00726182      -284.7885658384  8.38E-02
    64 Broy./Diag. 0.10E+00   14.1     0.01427674      -284.8063643662 -1.78E-02
    65 Broy./Diag. 0.10E+00   14.1     0.01313139      -284.8061844860  1.80E-04
    66 Broy./Diag. 0.10E+00   14.1     0.00992349      -284.8089445696 -2.76E-03
    67 Broy./Diag. 0.10E+00   14.1     0.01228639      -284.8014616429  7.48E-03
    68 Broy./Diag. 0.10E+00   14.1     0.01412474      -284.7892346790  1.22E-02
    69 Broy./Diag. 0.10E+00   14.1     0.01057491      -284.8132158677 -2.40E-02
    70 Broy./Diag. 0.10E+00   14.1     0.02562263      -284.8324315706 -1.92E-02
    71 Broy./Diag. 0.10E+00   14.1     0.02320768      -284.8537949437 -2.14E-02
    72 Broy./Diag. 0.10E+00   14.1     0.02214204      -284.8048832015  4.89E-02
    73 Broy./Diag. 0.10E+00   14.1     0.01489817      -284.7901429472  1.47E-02
    74 Broy./Diag. 0.10E+00   14.1     0.00593161      -284.7974264560 -7.28E-03
    75 Broy./Diag. 0.10E+00   14.1     0.00945049      -284.8093177977 -1.19E-02
    76 Broy./Diag. 0.10E+00   14.1     0.03588155      -284.7601268759  4.92E-02
    77 Broy./Diag. 0.10E+00   14.1     0.04425276      -284.7866850233 -2.66E-02
    78 Broy./Diag. 0.10E+00   14.2     0.01770178      -284.8232347624 -3.65E-02
    79 Broy./Diag. 0.10E+00   14.1     0.00500796      -284.8193551263  3.88E-03
    80 Broy./Diag. 0.10E+00   14.1     0.01121485      -284.8232109464 -3.86E-03
    81 Broy./Diag. 0.10E+00   14.1     0.03678498      -284.8216868819  1.52E-03
    82 Broy./Diag. 0.10E+00   14.1     0.03220034      -284.8150751922  6.61E-03
    83 Broy./Diag. 0.10E+00   14.1     0.00586543      -284.8053412268  9.73E-03
    84 Broy./Diag. 0.10E+00   14.1     0.00891795      -284.7967263098  8.61E-03
    85 Broy./Diag. 0.10E+00   14.1     0.01573430      -284.7896335854  7.09E-03
    86 Broy./Diag. 0.10E+00   14.1     0.01281804      -284.8076841928 -1.81E-02
    87 Broy./Diag. 0.10E+00   14.1     0.00649426      -284.8129741837 -5.29E-03
    88 Broy./Diag. 0.10E+00   14.1     0.01799535      -284.8102021777  2.77E-03
    89 Broy./Diag. 0.10E+00   14.1     0.03091269      -284.8372356791 -2.70E-02
    90 Broy./Diag. 0.10E+00   14.1     0.00971777      -284.8287000018  8.54E-03
    91 Broy./Diag. 0.10E+00   14.1     0.00334961      -284.8292381459 -5.38E-04
    92 Broy./Diag. 0.10E+00   14.1     0.00886936      -284.8263956174  2.84E-03
    93 Broy./Diag. 0.10E+00   14.2     0.00760956      -284.8362610474 -9.87E-03
    94 Broy./Diag. 0.10E+00   14.1     0.01517552      -284.8352906867  9.70E-04
    95 Broy./Diag. 0.10E+00   14.1     0.02256796      -284.8549880987 -1.97E-02
    96 Broy./Diag. 0.10E+00   14.1     0.05825439      -284.8756835944 -2.07E-02
    97 Broy./Diag. 0.10E+00   14.1     0.00392869      -284.8803088939 -4.63E-03
    98 Broy./Diag. 0.10E+00   14.1     0.00745500      -284.8705598038  9.75E-03
    99 Broy./Diag. 0.10E+00   14.1     0.01455626      -284.8602433642  1.03E-02
   100 Broy./Diag. 0.10E+00   14.1     0.00533352      -284.8458568209  1.44E-02

  Leaving inner SCF loop after reaching   100 steps.


  Electronic density on regular grids:       -177.0000017922       -0.0000017922
  Core density on regular grids:              176.9999999999       -0.0000000001
  Total charge density on r-space grids:       -0.0000017923
  Total charge density g-space grids:          -0.0000017923

  Overlap energy of the core charge distribution:               0.00000836868231
  Self energy of the core charge distribution:               -656.67682311856515
  Core Hamiltonian energy:                                    203.76460534671969
  Hartree energy:                                             247.88837901999506
  Exchange-correlation energy:                                -79.78023780364258
  Dispersion energy:                                           -0.04052890273224
  Electronic entropic energy:                                  -0.00128044277907
  Fermi energy:                                                -0.14393061458608

  Total energy:                                              -284.84585682088050

  outer SCF iter =  117 RMS gradient =   0.53E-02 energy =       -284.8458568209
     1 Broy./Diag. 0.10E+00   20.7     0.28409627      -284.7823375968  6.35E-02
     2 Broy./Diag. 0.10E+00   14.1     0.28435587      -285.4781616726 -6.96E-01
     3 Broy./Diag. 0.10E+00   14.1     0.02185718      -284.8591563027  6.19E-01
     4 Broy./Diag. 0.10E+00   14.1     0.01302531      -284.8424813465  1.67E-02
     5 Broy./Diag. 0.10E+00   14.1     0.00822185      -284.8091658853  3.33E-02
     6 Broy./Diag. 0.10E+00   14.1     0.00669160      -284.8191721625 -1.00E-02
     7 Broy./Diag. 0.10E+00   14.1     0.01640444      -284.8158130299  3.36E-03
     8 Broy./Diag. 0.10E+00   14.1     0.01148493      -284.8124562615  3.36E-03
     9 Broy./Diag. 0.10E+00   14.1     0.01238887      -284.7932260204  1.92E-02
    10 Broy./Diag. 0.10E+00   14.1     0.01021672      -284.8150444060 -2.18E-02
    11 Broy./Diag. 0.10E+00   14.1     0.01543086      -284.8232234883 -8.18E-03
    12 Broy./Diag. 0.10E+00   14.1     0.09238756      -284.8107919582  1.24E-02
    13 Broy./Diag. 0.10E+00   14.1     0.05987906      -284.8212786059 -1.05E-02
    14 Broy./Diag. 0.10E+00   14.1     0.08304219      -284.8666842401 -4.54E-02
    15 Broy./Diag. 0.10E+00   14.1     0.00874523      -284.8422508493  2.44E-02
    16 Broy./Diag. 0.10E+00   14.1     0.01111596      -284.8200899443  2.22E-02
    17 Broy./Diag. 0.10E+00   14.1     0.00682962      -284.8373505346 -1.73E-02
    18 Broy./Diag. 0.10E+00   14.1     0.02161841      -284.8148176466  2.25E-02
    19 Broy./Diag. 0.10E+00   14.1     0.01543059      -284.8243861603 -9.57E-03
    20 Broy./Diag. 0.10E+00   14.1     0.00582855      -284.8295397172 -5.15E-03
    21 Broy./Diag. 0.10E+00   14.1     0.00812131      -284.8309477313 -1.41E-03
    22 Broy./Diag. 0.10E+00   14.1     0.01446533      -284.8389837105 -8.04E-03
    23 Broy./Diag. 0.10E+00   14.1     0.01502835      -284.8503580937 -1.14E-02
    24 Broy./Diag. 0.10E+00   14.1     0.01043636      -284.8599572975 -9.60E-03
    25 Broy./Diag. 0.10E+00   14.1     0.00740186      -284.8713480880 -1.14E-02
    26 Broy./Diag. 0.10E+00   14.1     0.01343735      -284.8618687366  9.48E-03
    27 Broy./Diag. 0.10E+00   14.1     0.01524137      -284.8220004011  3.99E-02
    28 Broy./Diag. 0.10E+00   14.1     0.00694523      -284.8367037427 -1.47E-02
    29 Broy./Diag. 0.10E+00   14.1     0.02692010      -284.8465209159 -9.82E-03
    30 Broy./Diag. 0.10E+00   14.1     0.06700295      -284.7826283531  6.39E-02
    31 Broy./Diag. 0.10E+00   14.1     0.02676767      -284.8373743111 -5.47E-02
    32 Broy./Diag. 0.10E+00   14.1     0.03350144      -284.8599595093 -2.26E-02
    33 Broy./Diag. 0.10E+00   14.1     0.01748085      -284.8710124291 -1.11E-02
    34 Broy./Diag. 0.10E+00   14.1     0.01579608      -284.8703026199  7.10E-04
    35 Broy./Diag. 0.10E+00   14.1     0.01836394      -284.8964705123 -2.62E-02
    36 Broy./Diag. 0.10E+00   14.1     0.04676085      -284.9072735117 -1.08E-02
    37 Broy./Diag. 0.10E+00   14.1     0.00798957      -284.8947954077  1.25E-02
    38 Broy./Diag. 0.10E+00   14.1     0.01020484      -284.8926822518  2.11E-03
    39 Broy./Diag. 0.10E+00   14.1     0.03087510      -284.8778053321  1.49E-02
    40 Broy./Diag. 0.10E+00   14.1     0.02470123      -284.8621772556  1.56E-02
    41 Broy./Diag. 0.10E+00   14.1     0.00356578      -284.8779048485 -1.57E-02
    42 Broy./Diag. 0.10E+00   14.1     0.01204315      -284.8802418735 -2.34E-03
    43 Broy./Diag. 0.10E+00   14.1     0.01818675      -284.8898743705 -9.63E-03
    44 Broy./Diag. 0.10E+00   14.1     0.00499366      -284.8681160145  2.18E-02
    45 Broy./Diag. 0.10E+00   14.1     0.02031345      -284.8794482622 -1.13E-02
    46 Broy./Diag. 0.10E+00   14.1     0.01346464      -284.8685647645  1.09E-02
    47 Broy./Diag. 0.10E+00   14.1     0.00253468      -284.8541427194  1.44E-02
    48 Broy./Diag. 0.10E+00   14.1     0.00781613      -284.8484509637  5.69E-03
    49 Broy./Diag. 0.10E+00   14.1     0.01143036      -284.8456328336  2.82E-03
    50 Broy./Diag. 0.10E+00   14.1     0.02359730      -284.8348695316  1.08E-02
    51 Broy./Diag. 0.10E+00   14.1     0.07054420      -284.8769871255 -4.21E-02
    52 Broy./Diag. 0.10E+00   14.1     0.01401809      -284.8876110444 -1.06E-02
    53 Broy./Diag. 0.10E+00   14.1     0.02269415      -284.8966645583 -9.05E-03
    54 Broy./Diag. 0.10E+00   14.1     0.01638095      -284.8734685369  2.32E-02
    55 Broy./Diag. 0.10E+00   14.1     0.03782058      -284.8948517304 -2.14E-02
    56 Broy./Diag. 0.10E+00   14.1     0.03033134      -284.8675366927  2.73E-02
    57 Broy./Diag. 0.10E+00   14.1     0.01114477      -284.8601601713  7.38E-03
    58 Broy./Diag. 0.10E+00   14.1     0.00821130      -284.8543712541  5.79E-03
    59 Broy./Diag. 0.10E+00   14.1     0.01366456      -284.8498004733  4.57E-03
    60 Broy./Diag. 0.10E+00   14.1     0.01144090      -284.8249194187  2.49E-02
    61 Broy./Diag. 0.10E+00   14.1     0.01181274      -284.8218646806  3.05E-03
    62 Broy./Diag. 0.10E+00   14.1     0.01026767      -284.8215407990  3.24E-04
    63 Broy./Diag. 0.10E+00   14.1     0.00904278      -284.8212586957  2.82E-04
    64 Broy./Diag. 0.10E+00   14.1     0.00622415      -284.8186360761  2.62E-03
    65 Broy./Diag. 0.10E+00   14.1     0.02475052      -284.8094193069  9.22E-03
    66 Broy./Diag. 0.10E+00   14.1     0.01703669      -284.8305710086 -2.12E-02
    67 Broy./Diag. 0.10E+00   14.1     0.02306746      -284.7716344047  5.89E-02
    68 Broy./Diag. 0.10E+00   14.1     0.00609159      -284.7506949077  2.09E-02
    69 Broy./Diag. 0.10E+00   14.1     0.00154630      -284.7581476150 -7.45E-03
    70 Broy./Diag. 0.10E+00   14.1     0.00863891      -284.7589159677 -7.68E-04
    71 Broy./Diag. 0.10E+00   14.1     0.01875723      -284.7399261709  1.90E-02
    72 Broy./Diag. 0.10E+00   14.1     0.03168979      -284.7511182297 -1.12E-02
    73 Broy./Diag. 0.10E+00   14.1     0.06560419      -284.8772258194 -1.26E-01
    74 Broy./Diag. 0.10E+00   14.1     0.00967781      -284.8367124081  4.05E-02
    75 Broy./Diag. 0.10E+00   14.1     0.01240318      -284.8572418783 -2.05E-02
    76 Broy./Diag. 0.10E+00   14.1     0.00693238      -284.8519589620  5.28E-03
    77 Broy./Diag. 0.10E+00   14.1     0.01136594      -284.8522441103 -2.85E-04
    78 Broy./Diag. 0.10E+00   14.1     0.00815626      -284.8637896226 -1.15E-02
    79 Broy./Diag. 0.10E+00   14.1     0.01115201      -284.8710732915 -7.28E-03
    80 Broy./Diag. 0.10E+00   14.1     0.01848449      -284.8776935196 -6.62E-03
    81 Broy./Diag. 0.10E+00   14.1     0.00581851      -284.8862724663 -8.58E-03
    82 Broy./Diag. 0.10E+00   14.1     0.03141639      -284.8877000725 -1.43E-03
    83 Broy./Diag. 0.10E+00   14.1     0.01222748      -284.8738113494  1.39E-02
    84 Broy./Diag. 0.10E+00   14.1     0.01589797      -284.8848055559 -1.10E-02
    85 Broy./Diag. 0.10E+00   14.1     0.02151993      -284.8758464891  8.96E-03
    86 Broy./Diag. 0.10E+00   14.1     0.00267820      -284.8793092659 -3.46E-03
    87 Broy./Diag. 0.10E+00   14.1     0.04206758      -284.8806808874 -1.37E-03
    88 Broy./Diag. 0.10E+00   14.1     0.01896179      -284.8404032907  4.03E-02
    89 Broy./Diag. 0.10E+00   14.1     0.00688992      -284.8674052212 -2.70E-02
    90 Broy./Diag. 0.10E+00   14.1     0.01132013      -284.8655728576  1.83E-03
    91 Broy./Diag. 0.10E+00   14.1     0.01664046      -284.8716924859 -6.12E-03
    92 Broy./Diag. 0.10E+00   14.1     0.03115367      -284.9070086032 -3.53E-02
    93 Broy./Diag. 0.10E+00   14.1     0.06355966      -284.9184690539 -1.15E-02
    94 Broy./Diag. 0.10E+00   14.1     0.02303281      -284.8982721870  2.02E-02
    95 Broy./Diag. 0.10E+00   14.1     0.00494985      -284.8849314625  1.33E-02
    96 Broy./Diag. 0.10E+00   14.1     0.00944435      -284.8756906729  9.24E-03
    97 Broy./Diag. 0.10E+00   14.1     0.00474198      -284.8729620995  2.73E-03
    98 Broy./Diag. 0.10E+00   14.1     0.03466744      -284.8736006795 -6.39E-04
    99 Broy./Diag. 0.10E+00   14.1     0.01726218      -284.8608972153  1.27E-02
   100 Broy./Diag. 0.10E+00   14.1     0.02926813      -284.9021122987 -4.12E-02

  Leaving inner SCF loop after reaching   100 steps.


  Electronic density on regular grids:       -177.0000017920       -0.0000017920
  Core density on regular grids:              176.9999999999       -0.0000000001
  Total charge density on r-space grids:       -0.0000017922
  Total charge density g-space grids:          -0.0000017922

  Overlap energy of the core charge distribution:               0.00000836868231
  Self energy of the core charge distribution:               -656.67682311856515
  Core Hamiltonian energy:                                    203.72033026619761
  Hartree energy:                                             247.86991307807264
  Exchange-correlation energy:                                -79.77374376235460
  Dispersion energy:                                           -0.04052890273224
  Electronic entropic energy:                                  -0.00115370890835
  Fermi energy:                                                -0.14378461606350

  Total energy:                                              -284.90211229871306

  outer SCF iter =  118 RMS gradient =   0.29E-01 energy =       -284.9021122987
     1 Broy./Diag. 0.10E+00   20.6     0.23029496      -284.8031894447  9.89E-02
     2 Broy./Diag. 0.10E+00   14.1     0.22506990      -285.5018779206 -6.99E-01
     3 Broy./Diag. 0.10E+00   14.1     0.02933508      -284.8814690504  6.20E-01
     4 Broy./Diag. 0.10E+00   14.1     0.01538390      -284.8914305982 -9.96E-03
     5 Broy./Diag. 0.10E+00   14.1     0.01618267      -284.8667808526  2.46E-02
     6 Broy./Diag. 0.10E+00   14.1     0.01025892      -284.8631123214  3.67E-03
     7 Broy./Diag. 0.10E+00   14.1     0.01983216      -284.8694022692 -6.29E-03
     8 Broy./Diag. 0.10E+00   14.1     0.01837484      -284.8225509401  4.69E-02
     9 Broy./Diag. 0.10E+00   14.1     0.06513541      -284.7891070932  3.34E-02
    10 Broy./Diag. 0.10E+00   14.1     0.05191067      -284.8232610684 -3.42E-02
    11 Broy./Diag. 0.10E+00   14.1     0.03099106      -284.8209662892  2.29E-03
    12 Broy./Diag. 0.10E+00   14.1     0.01086468      -284.7950003439  2.60E-02
    13 Broy./Diag. 0.10E+00   14.1     0.00677443      -284.7866361303  8.36E-03
    14 Broy./Diag. 0.10E+00   14.1     0.00850095      -284.7775040745  9.13E-03
    15 Broy./Diag. 0.10E+00   14.1     0.01944922      -284.7590934108  1.84E-02
    16 Broy./Diag. 0.10E+00   14.1     0.02023418      -284.7653460998 -6.25E-03
    17 Broy./Diag. 0.10E+00   14.1     0.01082974      -284.7423267731  2.30E-02
    18 Broy./Diag. 0.10E+00   14.1     0.01378729      -284.7749117682 -3.26E-02
    19 Broy./Diag. 0.10E+00   14.1     0.01327107      -284.7614330740  1.35E-02
    20 Broy./Diag. 0.10E+00   14.1     0.00946853      -284.7899050936 -2.85E-02
    21 Broy./Diag. 0.10E+00   14.1     0.01350518      -284.7685066437  2.14E-02
    22 Broy./Diag. 0.10E+00   14.1     0.01180322      -284.7653012407  3.21E-03
    23 Broy./Diag. 0.10E+00   14.1     0.01447572      -284.7845074789 -1.92E-02
    24 Broy./Diag. 0.10E+00   14.1     0.01640140      -284.7671514378  1.74E-02
    25 Broy./Diag. 0.10E+00   14.1     0.00923552      -284.7556893032  1.15E-02
    26 Broy./Diag. 0.10E+00   14.1     0.00708512      -284.7563347646 -6.45E-04
    27 Broy./Diag. 0.10E+00   14.1     0.07618464      -284.7616879972 -5.35E-03
    28 Broy./Diag. 0.10E+00   14.1     0.04111032      -284.7753869098 -1.37E-02
    29 Broy./Diag. 0.10E+00   14.1     0.01439125      -284.8022142730 -2.68E-02
    30 Broy./Diag. 0.10E+00   14.1     0.02107321      -284.8040789855 -1.86E-03
    31 Broy./Diag. 0.10E+00   14.1     0.00461972      -284.7981998734  5.88E-03
    32 Broy./Diag. 0.10E+00   14.1     0.01815141      -284.7881598003  1.00E-02
    33 Broy./Diag. 0.10E+00   14.1     0.02366238      -284.8404737556 -5.23E-02
    34 Broy./Diag. 0.10E+00   14.1     0.01006266      -284.8019107201  3.86E-02
    35 Broy./Diag. 0.10E+00   14.1     0.01840553      -284.7941201032  7.79E-03
    36 Broy./Diag. 0.10E+00   14.1     0.01428218      -284.8219579664 -2.78E-02
    37 Broy./Diag. 0.10E+00   14.1     0.02015587      -284.7576938607  6.43E-02
    38 Broy./Diag. 0.10E+00   14.1     0.02167273      -284.7868789012 -2.92E-02
    39 Broy./Diag. 0.10E+00   14.1     0.03764853      -284.7683319246  1.85E-02
    40 Broy./Diag. 0.10E+00   14.1     0.01241040      -284.8035118698 -3.52E-02
    41 Broy./Diag. 0.10E+00   14.1     0.01938763      -284.8048585567 -1.35E-03
    42 Broy./Diag. 0.10E+00   14.1     0.01704446      -284.7854637064  1.94E-02
    43 Broy./Diag. 0.10E+00   14.1     0.00853674      -284.8077097723 -2.22E-02
    44 Broy./Diag. 0.10E+00   14.1     0.01640178      -284.8264521375 -1.87E-02
    45 Broy./Diag. 0.10E+00   14.1     0.01164778      -284.8275945255 -1.14E-03
    46 Broy./Diag. 0.10E+00   14.1     0.01667952      -284.8322811356 -4.69E-03
    47 Broy./Diag. 0.10E+00   14.1     0.08420321      -284.8426867645 -1.04E-02
    48 Broy./Diag. 0.10E+00   14.1     0.11848467      -284.8302635806  1.24E-02
    49 Broy./Diag. 0.10E+00   14.1     0.04916436      -284.8238827945  6.38E-03
    50 Broy./Diag. 0.10E+00   14.1     0.05405508      -284.8677209266 -4.38E-02
    51 Broy./Diag. 0.10E+00   14.1     0.01991532      -284.8501193797  1.76E-02
    52 Broy./Diag. 0.10E+00   14.1     0.01813305      -284.8445324665  5.59E-03
    53 Broy./Diag. 0.10E+00   14.2     0.00556308      -284.8496332325 -5.10E-03
    54 Broy./Diag. 0.10E+00   14.1     0.02494296      -284.8439370462  5.70E-03
    55 Broy./Diag. 0.10E+00   14.1     0.03822511      -284.8156847304  2.83E-02
    56 Broy./Diag. 0.10E+00   14.1     0.02407920      -284.8288776719 -1.32E-02
    57 Broy./Diag. 0.10E+00   14.1     0.00689133      -284.8334261854 -4.55E-03
    58 Broy./Diag. 0.10E+00   14.1     0.02214525      -284.8361177789 -2.69E-03
