 DBCSR| CPU Multiplication driver                                           BLAS (U)
 DBCSR| Multrec recursion limit                                              512 (U)
 DBCSR| Multiplication stack size                                           1000 (D)
 DBCSR| Maximum elements for images                                    UNLIMITED (U)
 DBCSR| Multiplicative factor virtual images                                   1 (U)
 DBCSR| Use multiplication densification                                       T (D)
 DBCSR| Multiplication size stacks                                             3 (U)
 DBCSR| Use memory pool for CPU allocation                                     F (U)
 DBCSR| Number of 3D layers                                               SINGLE (U)
 DBCSR| Use MPI memory allocation                                              F (U)
 DBCSR| Use RMA algorithm                                                      F (U)
 DBCSR| Use Communication thread                                               T (U)
 DBCSR| Communication thread load                                             87 (D)
 DBCSR| MPI: My process id                                                     0
 DBCSR| MPI: Number of processes                                              16
 DBCSR| OMP: Current number of threads                                         1
 DBCSR| OMP: Max number of threads                                             1
 DBCSR| Split modifier for TAS multiplication algorithm                  1.0E+00 (U)


  **** **** ******  **  PROGRAM STARTED AT               2025-06-12 13:37:18.334
 ***** ** ***  *** **   PROGRAM STARTED ON                            sebnode121
 **    ****   ******    PROGRAM STARTED BY                                luehrs
 ***** **    ** ** **   PROGRAM PROCESS ID                                571108
  **** **  *******  **  PROGRAM STARTED IN /home/luehrs/PhD/Sodium_batteries/Sod
                                           ium-graphene-edge/Armchair_3/No_hydro
                                           gen

 CP2K| version string:                                       CP2K version 2023.1
 CP2K| source code revision number:                                  git:b888bd8
 CP2K| cp2kflags: omp libint fftw3 libxc elpa parallel scalapack spglib         
 CP2K| is freely available from                            https://www.cp2k.org/
 CP2K| Program compiled at                          Tue Jan 10 19:52:03 UTC 2023
 CP2K| Program compiled on                                            x86-ubc-01
 CP2K| Program compiled for                                Linux-x86_64-gfortran
 CP2K| Data directory path                                       /usr/share/cp2k
 CP2K| Input file name                                        input.armchair.inp

 GLOBAL| Force Environment number                                              1
 GLOBAL| Basis set file name                                      ./BASIS_MOLOPT
 GLOBAL| Potential file name                                    ./GTH_POTENTIALS
 GLOBAL| MM Potential file name                                     MM_POTENTIAL
 GLOBAL| Coordinate file name           ./graphene_armchair_no_hydrogen_relaxed.
 GLOBAL| Method name                                                        CP2K
 GLOBAL| Project name                                graphene_armchair_BSSE_BLYP
 GLOBAL| Run type                                                           BSSE
 GLOBAL| FFT library                                                       FFTW3
 GLOBAL| Diagonalization library                                            ELPA
 GLOBAL| DGEMM library                                                      BLAS
 GLOBAL| Minimum number of eigenvectors for ELPA usage                        16
 GLOBAL| Orthonormality check for eigenvectors                          DISABLED
 GLOBAL| Matrix multiplication library                                 ScaLAPACK
 GLOBAL| All-to-all communication in single precision                          F
 GLOBAL| FFTs using library dependent lengths                                  F
 GLOBAL| Grid backend                                                       AUTO
 GLOBAL| Global print level                                                  LOW
 GLOBAL| MPI I/O enabled                                                       T
 GLOBAL| Total number of message passing processes                            16
 GLOBAL| Number of threads for this process                                    1
 GLOBAL| This output is from process                                           0
 GLOBAL| Stack size for threads created by OpenMP (OMP_STACKSIZE)        default
 GLOBAL| CPU model name                 Intel(R) Xeon(R) Gold 6144 CPU @ 3.50GHz

 MEMORY| system memory details [Kb]
 MEMORY|                        rank 0           min           max       average
 MEMORY| MemTotal             65585096      65585096      65585096      65585096
 MEMORY| MemFree              61794128      61794128      61794128      61794128
 MEMORY| Buffers                317052        317052        317052        317052
 MEMORY| Cached                1464352       1464352       1464352       1464352
 MEMORY| Slab                   280160        280160        280160        280160
 MEMORY| SReclaimable           138072        138072        138072        138072
 MEMORY| MemLikelyFree        63713604      63713604      63713604      63713604


 GENERATE|  Preliminary Number of Bonds generated:                             0
 GENERATE|  Achieved consistency in connectivity generation.

 *******************************************************************************
 *******************************************************************************
 **                                                                           **
 **     #####                         ##              ##                      **
 **    ##   ##            ##          ##              ##                      **
 **   ##     ##                       ##            ######                    **
 **   ##     ##  ##   ##  ##   #####  ##  ##   ####   ##    #####    #####    **
 **   ##     ##  ##   ##  ##  ##      ## ##   ##      ##   ##   ##  ##   ##   **
 **   ##  ## ##  ##   ##  ##  ##      ####     ###    ##   ######   ######    **
 **    ##  ###   ##   ##  ##  ##      ## ##      ##   ##   ##       ##        **
 **     #######   #####   ##   #####  ##  ##  ####    ##    #####   ##        **
 **           ##                                                    ##        **
 **                                                                           **
 **                                                ... make the atoms dance   **
 **                                                                           **
 **            Copyright (C) by CP2K developers group (2000-2022)             **
 **                      J. Chem. Phys. 152, 194103 (2020)                    **
 **                                                                           **
 *******************************************************************************


 TOTAL NUMBERS AND MAXIMUM NUMBERS

  Total number of            - Atomic kinds:                                   2
                             - Atoms:                                         43
                             - Shell sets:                                    43
                             - Shells:                                       215
                             - Primitive Cartesian functions:                217
                             - Cartesian basis functions:                    597
                             - Spherical basis functions:                    555

  Maximum angular momentum of- Orbital basis functions:                        2
                             - Local part of the GTH pseudopotential:          2
                             - Non-local part of the GTH pseudopotential:      1


 SCF PARAMETERS         Density guess:                                    ATOMIC
                        --------------------------------------------------------
                        max_scf:                                             100
                        max_scf_history:                                       0
                        max_diis:                                              4
                        --------------------------------------------------------
                        eps_scf:                                        3.00E-07
                        eps_scf_history:                                0.00E+00
                        eps_diis:                                       1.00E-01
                        eps_eigval:                                     1.00E-05
                        --------------------------------------------------------
                        level_shift [a.u.]:                             0.000000
                        added MOs                                       100  100
                        --------------------------------------------------------
                        Mixing method:                            BROYDEN_MIXING
                                                charge density mixing in g-space
                        --------------------------------------------------------
                        Smear method:                                FERMI_DIRAC
                        Electronic temperature [K]:                        300.0
                        Electronic temperature [a.u.]:                  9.50E-04
                        Accuracy threshold:                             1.00E-10
                        --------------------------------------------------------
                        Outer loop SCF in use 
                        No variables optimised in outer loop
                        eps_scf                                         1.00E-06
                        max_scf                                              150
                        DIIS optimization
                        DIIS buffer length                                     3
                        step_size                                       5.00E-01

 -------------------------------------------------------------------------------
 -                                                                             -
 -  BSSE CALCULATION         FRAGMENT CONF: 10        FRAGMENT SUBCONF: 10     -
 -                           CHARGE =     0           MULTIPLICITY =     0     -
 -                                                                             -
 -                 ATOM INDEX                              ATOM NAME           -
 -                 ----------                              ---------           -
 -                      1                                   C                  -
 -                      2                                   C                  -
 -                      3                                   C                  -
 -                      4                                   C                  -
 -                      5                                   C                  -
 -                      6                                   C                  -
 -                      7                                   C                  -
 -                      8                                   C                  -
 -                      9                                   C                  -
 -                     10                                   C                  -
 -                     11                                   C                  -
 -                     12                                   C                  -
 -                     13                                   C                  -
 -                     14                                   C                  -
 -                     15                                   C                  -
 -                     16                                   C                  -
 -                     17                                   C                  -
 -                     18                                   C                  -
 -                     19                                   C                  -
 -                     20                                   C                  -
 -                     21                                   C                  -
 -                     22                                   C                  -
 -                     23                                   C                  -
 -                     24                                   C                  -
 -                     25                                   C                  -
 -                     26                                   C                  -
 -                     27                                   C                  -
 -                     28                                   C                  -
 -                     29                                   C                  -
 -                     30                                   C                  -
 -                     31                                   C                  -
 -                     32                                   C                  -
 -                     33                                   C                  -
 -                     34                                   C                  -
 -                     35                                   C                  -
 -                     36                                   C                  -
 -                     37                                   C                  -
 -                     38                                   C                  -
 -                     39                                   C                  -
 -                     40                                   C                  -
 -                     41                                   C                  -
 -                     42                                   C                  -
 -------------------------------------------------------------------------------

 *******************************************************************************
 *******************************************************************************
 **                                                                           **
 **     #####                         ##              ##                      **
 **    ##   ##            ##          ##              ##                      **
 **   ##     ##                       ##            ######                    **
 **   ##     ##  ##   ##  ##   #####  ##  ##   ####   ##    #####    #####    **
 **   ##     ##  ##   ##  ##  ##      ## ##   ##      ##   ##   ##  ##   ##   **
 **   ##  ## ##  ##   ##  ##  ##      ####     ###    ##   ######   ######    **
 **    ##  ###   ##   ##  ##  ##      ## ##      ##   ##   ##       ##        **
 **     #######   #####   ##   #####  ##  ##  ####    ##    #####   ##        **
 **           ##                                                    ##        **
 **                                                                           **
 **                                                ... make the atoms dance   **
 **                                                                           **
 **            Copyright (C) by CP2K developers group (2000-2022)             **
 **                      J. Chem. Phys. 152, 194103 (2020)                    **
 **                                                                           **
 *******************************************************************************


 TOTAL NUMBERS AND MAXIMUM NUMBERS

  Total number of            - Atomic kinds:                                   1
                             - Atoms:                                         42
                             - Shell sets:                                    42
                             - Shells:                                       210
                             - Primitive Cartesian functions:                210
                             - Cartesian basis functions:                    588
                             - Spherical basis functions:                    546

  Maximum angular momentum of- Orbital basis functions:                        2
                             - Local part of the GTH pseudopotential:          2
                             - Non-local part of the GTH pseudopotential:      0


 SCF PARAMETERS         Density guess:                                    ATOMIC
                        --------------------------------------------------------
                        max_scf:                                             100
                        max_scf_history:                                       0
                        max_diis:                                              4
                        --------------------------------------------------------
                        eps_scf:                                        3.00E-07
                        eps_scf_history:                                0.00E+00
                        eps_diis:                                       1.00E-01
                        eps_eigval:                                     1.00E-05
                        --------------------------------------------------------
                        level_shift [a.u.]:                             0.000000
                        added MOs                                       100  100
                        --------------------------------------------------------
                        Mixing method:                            BROYDEN_MIXING
                                                charge density mixing in g-space
                        --------------------------------------------------------
                        Smear method:                                FERMI_DIRAC
                        Electronic temperature [K]:                        300.0
                        Electronic temperature [a.u.]:                  9.50E-04
                        Accuracy threshold:                             1.00E-10
                        --------------------------------------------------------
                        Outer loop SCF in use 
                        No variables optimised in outer loop
                        eps_scf                                         1.00E-06
                        max_scf                                              150
                        DIIS optimization
                        DIIS buffer length                                     3
                        step_size                                       5.00E-01

 Spin 1

 Number of electrons:                                                         84
 Number of occupied orbitals:                                                 84
 Number of molecular orbitals:                                               184

 Spin 2

 Number of electrons:                                                         84
 Number of occupied orbitals:                                                 84
 Number of molecular orbitals:                                               184

 Number of orbital functions:                                                546
 Number of independent orbital functions:                                    546

 Extrapolation method: initial_guess


 SCF WAVEFUNCTION OPTIMIZATION

  Step     Update method      Time    Convergence         Total energy    Change
  ------------------------------------------------------------------------------
     1 NoMix/Diag. 0.10E+00    4.6     0.45108746      -234.7583052266 -2.35E+02
     2 Broy./Diag. 0.10E+00    8.1     0.01169027      -227.2419673704  7.52E+00
     3 Broy./Diag. 0.10E+00    8.6     0.12419314      -232.5091705719 -5.27E+00
     4 Broy./Diag. 0.10E+00    8.8     0.23539426      -235.2680729362 -2.76E+00
     5 Broy./Diag. 0.10E+00    8.8     0.24324331      -234.8861601609  3.82E-01
     6 Broy./Diag. 0.10E+00    9.2     0.10809640      -235.6412956116 -7.55E-01
     7 Broy./Diag. 0.10E+00    9.3     7.51530279      -236.2883792976 -6.47E-01
     8 Broy./Diag. 0.10E+00    9.7     7.51529894      -211.4053589478  2.49E+01
     9 Broy./Diag. 0.10E+00    9.9     0.04861285      -236.4676788223 -2.51E+01
    10 Broy./Diag. 0.10E+00   10.3     0.03094801      -236.6003485322 -1.33E-01
    11 Broy./Diag. 0.10E+00   10.7     4.93482817      -236.7042133817 -1.04E-01
    12 Broy./Diag. 0.10E+00   11.0     4.93482496      -222.0890921013  1.46E+01
    13 Broy./Diag. 0.10E+00   11.5     0.02386110      -236.7395778131 -1.47E+01
    14 Broy./Diag. 0.10E+00   12.1     0.01320937      -236.7831279067 -4.36E-02
    15 Broy./Diag. 0.10E+00   13.1     0.01504042      -236.8089957777 -2.59E-02
    16 Broy./Diag. 0.10E+00   14.9     0.01184110      -236.8313756659 -2.24E-02
    17 Broy./Diag. 0.10E+00   23.1     0.00239544      -236.8852869655 -5.39E-02
    18 Broy./Diag. 0.10E+00   13.9     0.00438808      -236.8493013457  3.60E-02
    19 Broy./Diag. 0.10E+00   13.9     0.00236198      -236.8528838126 -3.58E-03
    20 Broy./Diag. 0.10E+00   13.9     0.00214713      -236.8541182268 -1.23E-03
    21 Broy./Diag. 0.10E+00   14.0     0.00079928      -236.8894492642 -3.53E-02
    22 Broy./Diag. 0.10E+00   13.9     0.00119632      -236.9087316077 -1.93E-02
    23 Broy./Diag. 0.10E+00   13.9     0.00158860      -236.9115100943 -2.78E-03
    24 Broy./Diag. 0.10E+00   13.9     0.00102152      -236.9080226068  3.49E-03
    25 Broy./Diag. 0.10E+00   13.8     0.00072741      -236.8926589490  1.54E-02
    26 Broy./Diag. 0.10E+00   13.9     0.00048498      -236.8851970733  7.46E-03
    27 Broy./Diag. 0.10E+00   13.9     0.00040942      -236.8886969847 -3.50E-03
    28 Broy./Diag. 0.10E+00   13.9     0.00024334      -236.8942996319 -5.60E-03
    29 Broy./Diag. 0.10E+00   13.9     0.00059341      -236.8963608819 -2.06E-03
    30 Broy./Diag. 0.10E+00   13.9     0.00018384      -236.9002329360 -3.87E-03
    31 Broy./Diag. 0.10E+00   13.9     0.00025140      -236.9009996276 -7.67E-04
    32 Broy./Diag. 0.10E+00   13.8     0.00006622      -236.9021985997 -1.20E-03
    33 Broy./Diag. 0.10E+00   13.9     0.00020261      -236.9051890681 -2.99E-03
    34 Broy./Diag. 0.10E+00   13.9     0.00013266      -236.9096533010 -4.46E-03
    35 Broy./Diag. 0.10E+00   13.9     0.00011425      -236.9114557241 -1.80E-03
    36 Broy./Diag. 0.10E+00   13.8     0.00002635      -236.9140675777 -2.61E-03
    37 Broy./Diag. 0.10E+00   13.8     0.00008701      -236.9143505724 -2.83E-04
    38 Broy./Diag. 0.10E+00   13.9     0.00002987      -236.9147629229 -4.12E-04
    39 Broy./Diag. 0.10E+00   13.9     0.00003992      -236.9150738125 -3.11E-04
    40 Broy./Diag. 0.10E+00   13.8     0.00002869      -236.9158752914 -8.01E-04
    41 Broy./Diag. 0.10E+00   13.8     0.00003790      -236.9163923506 -5.17E-04
    42 Broy./Diag. 0.10E+00   13.9     0.00001870      -236.9165565545 -1.64E-04
    43 Broy./Diag. 0.10E+00   13.9     0.00001360      -236.9165844099 -2.79E-05
    44 Broy./Diag. 0.10E+00   13.9     0.00000839      -236.9164686714  1.16E-04
    45 Broy./Diag. 0.10E+00   13.9     0.00000781      -236.9160965251  3.72E-04
    46 Broy./Diag. 0.10E+00   13.8     0.00000894      -236.9160100247  8.65E-05
    47 Broy./Diag. 0.10E+00   13.9     0.00000473      -236.9160756830 -6.57E-05
    48 Broy./Diag. 0.10E+00   13.8     0.00001053      -236.9162244034 -1.49E-04
    49 Broy./Diag. 0.10E+00   13.8     0.00000487      -236.9164166512 -1.92E-04
    50 Broy./Diag. 0.10E+00   14.1     0.00000435      -236.9165004217 -8.38E-05
    51 Broy./Diag. 0.10E+00   14.1     0.00000322      -236.9165865475 -8.61E-05
    52 Broy./Diag. 0.10E+00   14.1     0.00000180      -236.9166382927 -5.17E-05
    53 Broy./Diag. 0.10E+00   14.1     0.00000171      -236.9166752945 -3.70E-05
    54 Broy./Diag. 0.10E+00   14.1     0.00000146      -236.9167034001 -2.81E-05
    55 Broy./Diag. 0.10E+00   14.1     0.00000167      -236.9167134303 -1.00E-05
    56 Broy./Diag. 0.10E+00   14.1     0.00000185      -236.9167170877 -3.66E-06
    57 Broy./Diag. 0.10E+00   14.1     0.00000110      -236.9167148562  2.23E-06
    58 Broy./Diag. 0.10E+00   14.1     0.00000174      -236.9167043513  1.05E-05
    59 Broy./Diag. 0.10E+00   14.1     0.00000041      -236.9166914892  1.29E-05
    60 Broy./Diag. 0.10E+00   14.0     0.00000071      -236.9166806724  1.08E-05
    61 Broy./Diag. 0.10E+00   13.8     0.00000024      -236.9166737039  6.97E-06

  *** SCF run converged in    61 steps ***


  Electronic density on regular grids:       -168.0000000000        0.0000000000
  Core density on regular grids:              167.9999999998       -0.0000000002
  Total charge density on r-space grids:       -0.0000000002
  Total charge density g-space grids:          -0.0000000002

  Overlap energy of the core charge distribution:               0.00000805828988
  Self energy of the core charge distribution:               -560.74154042496878
  Core Hamiltonian energy:                                    173.82244601193776
  Hartree energy:                                             221.07456499096503
  Exchange-correlation energy:                                -70.99693894938024
  Dispersion energy:                                           -0.07174335246792
  Electronic entropic energy:                                  -0.00347003452426
  Fermi energy:                                                -0.16992176097837

  Total energy:                                              -236.91667370385926

  outer SCF iter =    1 RMS gradient =   0.24E-06 energy =       -236.9166737039
  outer SCF loop converged in   1 iterations or   61 steps


  Integrated absolute spin density  :                               0.0000000000
  WARNING: S**2 computation does not yet treat fractional occupied orbitals

 *** WARNING in qs_loc_utils.F:1500 :: User requested the calculation of ***
 *** the localized wavefunction but the section LOCALIZE was not         ***
 *** specified. Localization will not be performed!                      ***


 -------------------------------------------------------------------------------
 -                                                                             -
 -  BSSE CALCULATION         FRAGMENT CONF: 01        FRAGMENT SUBCONF: 01     -
 -                           CHARGE =     0           MULTIPLICITY =     0     -
 -                                                                             -
 -                 ATOM INDEX                              ATOM NAME           -
 -                 ----------                              ---------           -
 -                     43                                   Na                 -
 -------------------------------------------------------------------------------

 *******************************************************************************
 *******************************************************************************
 **                                                                           **
 **     #####                         ##              ##                      **
 **    ##   ##            ##          ##              ##                      **
 **   ##     ##                       ##            ######                    **
 **   ##     ##  ##   ##  ##   #####  ##  ##   ####   ##    #####    #####    **
 **   ##     ##  ##   ##  ##  ##      ## ##   ##      ##   ##   ##  ##   ##   **
 **   ##  ## ##  ##   ##  ##  ##      ####     ###    ##   ######   ######    **
 **    ##  ###   ##   ##  ##  ##      ## ##      ##   ##   ##       ##        **
 **     #######   #####   ##   #####  ##  ##  ####    ##    #####   ##        **
 **           ##                                                    ##        **
 **                                                                           **
 **                                                ... make the atoms dance   **
 **                                                                           **
 **            Copyright (C) by CP2K developers group (2000-2022)             **
 **                      J. Chem. Phys. 152, 194103 (2020)                    **
 **                                                                           **
 *******************************************************************************

 *** WARNING in qs_environment.F:1470 :: More ADDED_MOs requested for beta ***
 *** spin than available.                                                  ***


 *** WARNING in qs_environment.F:1486 :: More added MOs requested than     ***
 *** available. The full set of unoccupied MOs will be used. Use           ***
 *** 'ADDED_MOS -1' to always use all available MOs and to get rid of this ***
 *** warning.                                                              ***



 TOTAL NUMBERS AND MAXIMUM NUMBERS

  Total number of            - Atomic kinds:                                   1
                             - Atoms:                                          1
                             - Shell sets:                                     1
                             - Shells:                                         5
                             - Primitive Cartesian functions:                  7
                             - Cartesian basis functions:                      9
                             - Spherical basis functions:                      9

  Maximum angular momentum of- Orbital basis functions:                        1
                             - Local part of the GTH pseudopotential:          2
                             - Non-local part of the GTH pseudopotential:      1


 SCF PARAMETERS         Density guess:                                    ATOMIC
                        --------------------------------------------------------
                        max_scf:                                             100
                        max_scf_history:                                       0
                        max_diis:                                              4
                        --------------------------------------------------------
                        eps_scf:                                        3.00E-07
                        eps_scf_history:                                0.00E+00
                        eps_diis:                                       1.00E-01
                        eps_eigval:                                     1.00E-05
                        --------------------------------------------------------
                        level_shift [a.u.]:                             0.000000
                        added MOs                                         4    5
                        --------------------------------------------------------
                        Mixing method:                            BROYDEN_MIXING
                                                charge density mixing in g-space
                        --------------------------------------------------------
                        Smear method:                                FERMI_DIRAC
                        Electronic temperature [K]:                        300.0
                        Electronic temperature [a.u.]:                  9.50E-04
                        Accuracy threshold:                             1.00E-10
                        --------------------------------------------------------
                        Outer loop SCF in use 
                        No variables optimised in outer loop
                        eps_scf                                         1.00E-06
                        max_scf                                              150
                        DIIS optimization
                        DIIS buffer length                                     3
                        step_size                                       5.00E-01

 Spin 1

 Number of electrons:                                                          5
 Number of occupied orbitals:                                                  5
 Number of molecular orbitals:                                                 9

 Spin 2

 Number of electrons:                                                          4
 Number of occupied orbitals:                                                  4
 Number of molecular orbitals:                                                 9

 Number of orbital functions:                                                  9
 Number of independent orbital functions:                                      9

 Extrapolation method: initial_guess


 SCF WAVEFUNCTION OPTIMIZATION

  Step     Update method      Time    Convergence         Total energy    Change
  ------------------------------------------------------------------------------
     1 NoMix/Diag. 0.10E+00    3.5     0.36570036       -47.1609970378 -4.72E+01
     2 Broy./Diag. 0.10E+00    7.5     0.01374516       -47.1317264904  2.93E-02
     3 Broy./Diag. 0.10E+00    8.0     0.06741181       -47.1577419947 -2.60E-02
     4 Broy./Diag. 0.10E+00    8.1     0.00057034       -47.1395865983  1.82E-02
     5 Broy./Diag. 0.10E+00    8.1     0.00323698       -47.1516871807 -1.21E-02
     6 Broy./Diag. 0.10E+00    8.5     0.00147228       -47.1487821236  2.91E-03
     7 Broy./Diag. 0.10E+00    8.6     0.01177525       -47.1539820079 -5.20E-03
     8 Broy./Diag. 0.10E+00    9.0     0.00268898       -47.1783148739 -2.43E-02
     9 Broy./Diag. 0.10E+00    9.3     0.00284308       -47.1892838329 -1.10E-02
    10 Broy./Diag. 0.10E+00    9.5     0.00488518       -47.1750305080  1.43E-02
    11 Broy./Diag. 0.10E+00    9.9     0.00196774       -47.1784158695 -3.39E-03
    12 Broy./Diag. 0.10E+00   10.3     0.00132021       -47.1805466582 -2.13E-03
    13 Broy./Diag. 0.10E+00   10.9     0.00154427       -47.1747189516  5.83E-03
    14 Broy./Diag. 0.10E+00   11.4     0.00046748       -47.1722007524  2.52E-03
    15 Broy./Diag. 0.10E+00   11.9     0.00074877       -47.1665904004  5.61E-03
    16 Broy./Diag. 0.10E+00   12.5     0.00061191       -47.1645137125  2.08E-03
    17 Broy./Diag. 0.10E+00   13.3     0.00010094       -47.1639336410  5.80E-04
    18 Broy./Diag. 0.10E+00   13.1     0.00023848       -47.1620893027  1.84E-03
    19 Broy./Diag. 0.10E+00   13.1     0.00028641       -47.1608482035  1.24E-03
    20 Broy./Diag. 0.10E+00   13.1     0.00005241       -47.1594673477  1.38E-03
    21 Broy./Diag. 0.10E+00   13.1     0.00017373       -47.1559980897  3.47E-03
    22 Broy./Diag. 0.10E+00   13.1     0.00004874       -47.1552664696  7.32E-04
    23 Broy./Diag. 0.10E+00   13.1     0.00005849       -47.1542999881  9.66E-04
    24 Broy./Diag. 0.10E+00   13.1     0.00017153       -47.1571495668 -2.85E-03
    25 Broy./Diag. 0.10E+00   13.1     0.00003548       -47.1593686849 -2.22E-03
    26 Broy./Diag. 0.10E+00   13.1     0.00004642       -47.1563096528  3.06E-03
    27 Broy./Diag. 0.10E+00   13.1     0.00010907       -47.1484838541  7.83E-03
    28 Broy./Diag. 0.10E+00   13.1     0.00002955       -47.1458868952  2.60E-03
    29 Broy./Diag. 0.10E+00   13.1     0.00008978       -47.1493022163 -3.42E-03
    30 Broy./Diag. 0.10E+00   13.1     0.00003208       -47.1501137631 -8.12E-04
    31 Broy./Diag. 0.10E+00   13.1     0.00008832       -47.1464992408  3.61E-03
    32 Broy./Diag. 0.10E+00   13.1     0.00009615       -47.1474880288 -9.89E-04
    33 Broy./Diag. 0.10E+00   13.1     0.00006511       -47.1497184138 -2.23E-03
    34 Broy./Diag. 0.10E+00   13.1     0.00005688       -47.1507912131 -1.07E-03
    35 Broy./Diag. 0.10E+00   13.1     0.00002970       -47.1509286013 -1.37E-04
    36 Broy./Diag. 0.10E+00   13.1     0.00010665       -47.1535141598 -2.59E-03
    37 Broy./Diag. 0.10E+00   13.0     0.00002429       -47.1528240618  6.90E-04
    38 Broy./Diag. 0.10E+00   13.1     0.00001722       -47.1525925108  2.32E-04
    39 Broy./Diag. 0.10E+00   13.1     0.00005589       -47.1527738095 -1.81E-04
    40 Broy./Diag. 0.10E+00   13.1     0.00002120       -47.1522726144  5.01E-04
    41 Broy./Diag. 0.10E+00   13.1     0.00001734       -47.1520575339  2.15E-04
    42 Broy./Diag. 0.10E+00   13.1     0.00004685       -47.1518680793  1.89E-04
    43 Broy./Diag. 0.10E+00   13.1     0.00000633       -47.1518314300  3.66E-05
    44 Broy./Diag. 0.10E+00   13.1     0.00001664       -47.1519530543 -1.22E-04
    45 Broy./Diag. 0.10E+00   13.1     0.00000581       -47.1518211950  1.32E-04
    46 Broy./Diag. 0.10E+00   13.1     0.00000624       -47.1518523734 -3.12E-05
    47 Broy./Diag. 0.10E+00   13.1     0.00000431       -47.1518383399  1.40E-05
    48 Broy./Diag. 0.10E+00   13.0     0.00000298       -47.1518116015  2.67E-05
    49 Broy./Diag. 0.10E+00   13.0     0.00000135       -47.1517884497  2.32E-05
    50 Broy./Diag. 0.10E+00   13.1     0.00000195       -47.1517726972  1.58E-05
    51 Broy./Diag. 0.10E+00   13.0     0.00000357       -47.1517712085  1.49E-06
    52 Broy./Diag. 0.10E+00   13.0     0.00000322       -47.1517704205  7.88E-07
    53 Broy./Diag. 0.10E+00   13.0     0.00000546       -47.1517387528  3.17E-05
    54 Broy./Diag. 0.10E+00   13.0     0.00001336       -47.1517522490 -1.35E-05
    55 Broy./Diag. 0.10E+00   13.0     0.00000235       -47.1517513101  9.39E-07
    56 Broy./Diag. 0.10E+00   13.0     0.00000125       -47.1517479810  3.33E-06
    57 Broy./Diag. 0.10E+00   13.0     0.00000127       -47.1517681238 -2.01E-05
    58 Broy./Diag. 0.10E+00   13.0     0.00001140       -47.1517595944  8.53E-06
    59 Broy./Diag. 0.10E+00   13.0     0.00000185       -47.1517227478  3.68E-05
    60 Broy./Diag. 0.10E+00   13.0     0.00000076       -47.1517046849  1.81E-05
    61 Broy./Diag. 0.10E+00   13.0     0.00000111       -47.1517318956 -2.72E-05
    62 Broy./Diag. 0.10E+00   13.2     0.00000148       -47.1517518127 -1.99E-05
    63 Broy./Diag. 0.10E+00   13.1     0.00000150       -47.1517423337  9.48E-06
    64 Broy./Diag. 0.10E+00   13.1     0.00000094       -47.1517371262  5.21E-06
    65 Broy./Diag. 0.10E+00   13.1     0.00000848       -47.1517563591 -1.92E-05
    66 Broy./Diag. 0.10E+00   13.1     0.00000818       -47.1517611761 -4.82E-06
    67 Broy./Diag. 0.10E+00   13.1     0.00000047       -47.1517531481  8.03E-06
    68 Broy./Diag. 0.10E+00   13.1     0.00000125       -47.1517435401  9.61E-06
    69 Broy./Diag. 0.10E+00   13.1     0.00000080       -47.1517424989  1.04E-06
    70 Broy./Diag. 0.10E+00   13.1     0.00000093       -47.1517455057 -3.01E-06
    71 Broy./Diag. 0.10E+00   13.1     0.00000057       -47.1517457145 -2.09E-07
    72 Broy./Diag. 0.10E+00   13.1     0.00000196       -47.1517434463  2.27E-06
    73 Broy./Diag. 0.10E+00   12.9     0.00000127       -47.1517436971 -2.51E-07
    74 Broy./Diag. 0.10E+00   13.0     0.00000104       -47.1517396689  4.03E-06
    75 Broy./Diag. 0.10E+00   13.0     0.00000051       -47.1517379743  1.69E-06
    76 Broy./Diag. 0.10E+00   13.0     0.00000101       -47.1517371811  7.93E-07
    77 Broy./Diag. 0.10E+00   13.0     0.00000099       -47.1517372152 -3.41E-08
    78 Broy./Diag. 0.10E+00   13.0     0.00000182       -47.1517345906  2.62E-06
    79 Broy./Diag. 0.10E+00   13.0     0.00000220       -47.1517378769 -3.29E-06
    80 Broy./Diag. 0.10E+00   13.0     0.00000028       -47.1517348662  3.01E-06

  *** SCF run converged in    80 steps ***


  Electronic density on regular grids:         -9.0000017895       -0.0000017895
  Core density on regular grids:                9.0000000000       -0.0000000000
  Total charge density on r-space grids:       -0.0000017895
  Total charge density g-space grids:          -0.0000017895

  Overlap energy of the core charge distribution:               0.00000000000000
  Self energy of the core charge distribution:                -97.66279648848419
  Core Hamiltonian energy:                                     29.97786486509935
  Hartree energy:                                              27.58290107132522
  Exchange-correlation energy:                                 -7.04969386310664
  Dispersion energy:                                           -0.00001045020634
  Electronic entropic energy:                                  -0.00000000085977
  Fermi energy:                                                -0.08406326472613

  Total energy:                                               -47.15173486623698

  outer SCF iter =    1 RMS gradient =   0.28E-06 energy =        -47.1517348662
  outer SCF loop converged in   1 iterations or   80 steps


  Integrated absolute spin density  :                               1.0000148399
  WARNING: S**2 computation does not yet treat fractional occupied orbitals

 *** WARNING in qs_loc_utils.F:1500 :: User requested the calculation of ***
 *** the localized wavefunction but the section LOCALIZE was not         ***
 *** specified. Localization will not be performed!                      ***


 -------------------------------------------------------------------------------
 -                                                                             -
 -  BSSE CALCULATION         FRAGMENT CONF: 11        FRAGMENT SUBCONF: 10     -
 -                           CHARGE =     0           MULTIPLICITY =     0     -
 -                                                                             -
 -                 ATOM INDEX                              ATOM NAME           -
 -                 ----------                              ---------           -
 -                      1                                   C                  -
 -                      2                                   C                  -
 -                      3                                   C                  -
 -                      4                                   C                  -
 -                      5                                   C                  -
 -                      6                                   C                  -
 -                      7                                   C                  -
 -                      8                                   C                  -
 -                      9                                   C                  -
 -                     10                                   C                  -
 -                     11                                   C                  -
 -                     12                                   C                  -
 -                     13                                   C                  -
 -                     14                                   C                  -
 -                     15                                   C                  -
 -                     16                                   C                  -
 -                     17                                   C                  -
 -                     18                                   C                  -
 -                     19                                   C                  -
 -                     20                                   C                  -
 -                     21                                   C                  -
 -                     22                                   C                  -
 -                     23                                   C                  -
 -                     24                                   C                  -
 -                     25                                   C                  -
 -                     26                                   C                  -
 -                     27                                   C                  -
 -                     28                                   C                  -
 -                     29                                   C                  -
 -                     30                                   C                  -
 -                     31                                   C                  -
 -                     32                                   C                  -
 -                     33                                   C                  -
 -                     34                                   C                  -
 -                     35                                   C                  -
 -                     36                                   C                  -
 -                     37                                   C                  -
 -                     38                                   C                  -
 -                     39                                   C                  -
 -                     40                                   C                  -
 -                     41                                   C                  -
 -                     42                                   C                  -
 -                     43                                   Na_ghost           -
 -------------------------------------------------------------------------------

 *******************************************************************************
 *******************************************************************************
 **                                                                           **
 **     #####                         ##              ##                      **
 **    ##   ##            ##          ##              ##                      **
 **   ##     ##                       ##            ######                    **
 **   ##     ##  ##   ##  ##   #####  ##  ##   ####   ##    #####    #####    **
 **   ##     ##  ##   ##  ##  ##      ## ##   ##      ##   ##   ##  ##   ##   **
 **   ##  ## ##  ##   ##  ##  ##      ####     ###    ##   ######   ######    **
 **    ##  ###   ##   ##  ##  ##      ## ##      ##   ##   ##       ##        **
 **     #######   #####   ##   #####  ##  ##  ####    ##    #####   ##        **
 **           ##                                                    ##        **
 **                                                                           **
 **                                                ... make the atoms dance   **
 **                                                                           **
 **            Copyright (C) by CP2K developers group (2000-2022)             **
 **                      J. Chem. Phys. 152, 194103 (2020)                    **
 **                                                                           **
 *******************************************************************************


 TOTAL NUMBERS AND MAXIMUM NUMBERS

  Total number of            - Atomic kinds:                                   2
                             - Atoms:                                         43
                             - Shell sets:                                    43
                             - Shells:                                       215
                             - Primitive Cartesian functions:                217
                             - Cartesian basis functions:                    597
                             - Spherical basis functions:                    555

  Maximum angular momentum of- Orbital basis functions:                        2
                             - Local part of the GTH pseudopotential:          2
                             - Non-local part of the GTH pseudopotential:      0


 SCF PARAMETERS         Density guess:                                    ATOMIC
                        --------------------------------------------------------
                        max_scf:                                             100
                        max_scf_history:                                       0
                        max_diis:                                              4
                        --------------------------------------------------------
                        eps_scf:                                        3.00E-07
                        eps_scf_history:                                0.00E+00
                        eps_diis:                                       1.00E-01
                        eps_eigval:                                     1.00E-05
                        --------------------------------------------------------
                        level_shift [a.u.]:                             0.000000
                        added MOs                                       100  100
                        --------------------------------------------------------
                        Mixing method:                            BROYDEN_MIXING
                                                charge density mixing in g-space
                        --------------------------------------------------------
                        Smear method:                                FERMI_DIRAC
                        Electronic temperature [K]:                        300.0
                        Electronic temperature [a.u.]:                  9.50E-04
                        Accuracy threshold:                             1.00E-10
                        --------------------------------------------------------
                        Outer loop SCF in use 
                        No variables optimised in outer loop
                        eps_scf                                         1.00E-06
                        max_scf                                              150
                        DIIS optimization
                        DIIS buffer length                                     3
                        step_size                                       5.00E-01

 Spin 1

 Number of electrons:                                                         84
 Number of occupied orbitals:                                                 84
 Number of molecular orbitals:                                               184

 Spin 2

 Number of electrons:                                                         84
 Number of occupied orbitals:                                                 84
 Number of molecular orbitals:                                               184

 Number of orbital functions:                                                555
 Number of independent orbital functions:                                    555

 Extrapolation method: initial_guess


 SCF WAVEFUNCTION OPTIMIZATION

  Step     Update method      Time    Convergence         Total energy    Change
  ------------------------------------------------------------------------------
     1 NoMix/Diag. 0.10E+00    4.0     0.45110787      -234.7583052266 -2.35E+02
     2 Broy./Diag. 0.10E+00    8.1     0.01162456      -227.2816885241  7.48E+00
     3 Broy./Diag. 0.10E+00    8.5     0.11918045      -232.5202159997 -5.24E+00
     4 Broy./Diag. 0.10E+00    8.6     6.62538980      -235.3271149090 -2.81E+00
     5 Broy./Diag. 0.10E+00    8.8     6.62585182      -214.8125460772  2.05E+01
     6 Broy./Diag. 0.10E+00    9.0     0.05468330      -235.6663685123 -2.09E+01
     7 Broy./Diag. 0.10E+00    9.2     0.43467584      -236.1549435138 -4.89E-01
     8 Broy./Diag. 0.10E+00    9.5     0.43406538      -234.6984265792  1.46E+00
     9 Broy./Diag. 0.10E+00    9.8     0.28542426      -236.3145622027 -1.62E+00
    10 Broy./Diag. 0.10E+00   10.1     0.28605917      -235.3529526299  9.62E-01
    11 Broy./Diag. 0.10E+00   10.5     0.05218143      -236.5641338459 -1.21E+00
    12 Broy./Diag. 0.10E+00   11.0     0.05137771      -236.6406949166 -7.66E-02
    13 Broy./Diag. 0.10E+00   11.4     0.01354034      -236.7421030583 -1.01E-01
    14 Broy./Diag. 0.10E+00   12.0     0.01057789      -236.8072516455 -6.51E-02
    15 Broy./Diag. 0.10E+00   12.5     0.00896090      -236.8412181674 -3.40E-02
    16 Broy./Diag. 0.10E+00   13.1     0.00466533      -236.8616476285 -2.04E-02
    17 Broy./Diag. 0.10E+00   13.8     0.00140785      -236.8608398875  8.08E-04
    18 Broy./Diag. 0.10E+00   13.7     0.00435036      -236.8588660481  1.97E-03
    19 Broy./Diag. 0.10E+00   13.7     0.00134179      -236.8886465282 -2.98E-02
    20 Broy./Diag. 0.10E+00   13.7     0.00095198      -236.9168691176 -2.82E-02
    21 Broy./Diag. 0.10E+00   13.7     0.00192864      -236.8993327623  1.75E-02
    22 Broy./Diag. 0.10E+00   13.8     0.00057469      -236.8777548654  2.16E-02
    23 Broy./Diag. 0.10E+00   13.7     0.00104537      -236.8715730067  6.18E-03
    24 Broy./Diag. 0.10E+00   13.7     0.00050752      -236.8904287142 -1.89E-02
    25 Broy./Diag. 0.10E+00   13.7     0.00044909      -236.8992972206 -8.87E-03
    26 Broy./Diag. 0.10E+00   13.8     0.00070479      -236.9012946256 -2.00E-03
    27 Broy./Diag. 0.10E+00   13.8     0.00023812      -236.9044233285 -3.13E-03
    28 Broy./Diag. 0.10E+00   13.8     0.00040187      -236.9078200826 -3.40E-03
    29 Broy./Diag. 0.10E+00   13.7     0.00038393      -236.9093909898 -1.57E-03
    30 Broy./Diag. 0.10E+00   13.7     0.00013495      -236.9118053847 -2.41E-03
    31 Broy./Diag. 0.10E+00   13.7     0.00026930      -236.9127576731 -9.52E-04
    32 Broy./Diag. 0.10E+00   13.7     0.00009042      -236.9132376998 -4.80E-04
    33 Broy./Diag. 0.10E+00   13.7     0.00018637      -236.9129690738  2.69E-04
    34 Broy./Diag. 0.10E+00   13.7     0.00010294      -236.9144774927 -1.51E-03
    35 Broy./Diag. 0.10E+00   13.7     0.00008851      -236.9170047839 -2.53E-03
    36 Broy./Diag. 0.10E+00   13.7     0.00005172      -236.9186535267 -1.65E-03
    37 Broy./Diag. 0.10E+00   13.7     0.00006109      -236.9183995022  2.54E-04
    38 Broy./Diag. 0.10E+00   13.7     0.00002824      -236.9186842275 -2.85E-04
    39 Broy./Diag. 0.10E+00   13.7     0.00002835      -236.9194910293 -8.07E-04
    40 Broy./Diag. 0.10E+00   13.7     0.00005483      -236.9200011563 -5.10E-04
    41 Broy./Diag. 0.10E+00   13.7     0.00001473      -236.9201099359 -1.09E-04
    42 Broy./Diag. 0.10E+00   13.8     0.00002070      -236.9197365953  3.73E-04
    43 Broy./Diag. 0.10E+00   13.8     0.00000469      -236.9196522032  8.44E-05
    44 Broy./Diag. 0.10E+00   13.8     0.00001903      -236.9197363409 -8.41E-05
    45 Broy./Diag. 0.10E+00   13.8     0.00000556      -236.9199521877 -2.16E-04
    46 Broy./Diag. 0.10E+00   13.7     0.00000677      -236.9200435026 -9.13E-05
    47 Broy./Diag. 0.10E+00   13.8     0.00000590      -236.9200941628 -5.07E-05
    48 Broy./Diag. 0.10E+00   13.7     0.00000329      -236.9201220959 -2.79E-05
    49 Broy./Diag. 0.10E+00   13.7     0.00000221      -236.9201843620 -6.23E-05
    50 Broy./Diag. 0.10E+00   13.8     0.00000413      -236.9202041543 -1.98E-05
    51 Broy./Diag. 0.10E+00   13.8     0.00000129      -236.9202177597 -1.36E-05
    52 Broy./Diag. 0.10E+00   13.7     0.00000176      -236.9202394025 -2.16E-05
    53 Broy./Diag. 0.10E+00   13.7     0.00000207      -236.9202735551 -3.42E-05
    54 Broy./Diag. 0.10E+00   13.7     0.00000074      -236.9202721854  1.37E-06
    55 Broy./Diag. 0.10E+00   13.7     0.00000143      -236.9202524494  1.97E-05
    56 Broy./Diag. 0.10E+00   13.7     0.00000100      -236.9202461046  6.34E-06
    57 Broy./Diag. 0.10E+00   13.7     0.00000088      -236.9202488779 -2.77E-06
    58 Broy./Diag. 0.10E+00   13.7     0.00000048      -236.9202486125  2.65E-07
    59 Broy./Diag. 0.10E+00   13.7     0.00000076      -236.9202434190  5.19E-06
    60 Broy./Diag. 0.10E+00   13.7     0.00000024      -236.9202403534  3.07E-06

  *** SCF run converged in    60 steps ***


  Electronic density on regular grids:       -168.0000000000        0.0000000000
  Core density on regular grids:              167.9999999998       -0.0000000002
  Total charge density on r-space grids:       -0.0000000001
  Total charge density g-space grids:          -0.0000000001

  Overlap energy of the core charge distribution:               0.00000805828988
  Self energy of the core charge distribution:               -560.74154042496878
  Core Hamiltonian energy:                                    173.79516909370881
  Hartree energy:                                             221.08801039206151
  Exchange-correlation energy:                                -70.98668598231970
  Dispersion energy:                                           -0.07174335246792
  Electronic entropic energy:                                  -0.00345814075362
  Fermi energy:                                                -0.17097327416482

  Total energy:                                              -236.92024035338034

  outer SCF iter =    1 RMS gradient =   0.24E-06 energy =       -236.9202403534
  outer SCF loop converged in   1 iterations or   60 steps


  Integrated absolute spin density  :                               0.0000000000
  WARNING: S**2 computation does not yet treat fractional occupied orbitals

 *** WARNING in qs_loc_utils.F:1500 :: User requested the calculation of ***
 *** the localized wavefunction but the section LOCALIZE was not         ***
 *** specified. Localization will not be performed!                      ***


 -------------------------------------------------------------------------------
 -                                                                             -
 -  BSSE CALCULATION         FRAGMENT CONF: 11        FRAGMENT SUBCONF: 01     -
 -                           CHARGE =     0           MULTIPLICITY =     0     -
 -                                                                             -
 -                 ATOM INDEX                              ATOM NAME           -
 -                 ----------                              ---------           -
 -                      1                                   C_ghost            -
 -                      2                                   C_ghost            -
 -                      3                                   C_ghost            -
 -                      4                                   C_ghost            -
 -                      5                                   C_ghost            -
 -                      6                                   C_ghost            -
 -                      7                                   C_ghost            -
 -                      8                                   C_ghost            -
 -                      9                                   C_ghost            -
 -                     10                                   C_ghost            -
 -                     11                                   C_ghost            -
 -                     12                                   C_ghost            -
 -                     13                                   C_ghost            -
 -                     14                                   C_ghost            -
 -                     15                                   C_ghost            -
 -                     16                                   C_ghost            -
 -                     17                                   C_ghost            -
 -                     18                                   C_ghost            -
 -                     19                                   C_ghost            -
 -                     20                                   C_ghost            -
 -                     21                                   C_ghost            -
 -                     22                                   C_ghost            -
 -                     23                                   C_ghost            -
 -                     24                                   C_ghost            -
 -                     25                                   C_ghost            -
 -                     26                                   C_ghost            -
 -                     27                                   C_ghost            -
 -                     28                                   C_ghost            -
 -                     29                                   C_ghost            -
 -                     30                                   C_ghost            -
 -                     31                                   C_ghost            -
 -                     32                                   C_ghost            -
 -                     33                                   C_ghost            -
 -                     34                                   C_ghost            -
 -                     35                                   C_ghost            -
 -                     36                                   C_ghost            -
 -                     37                                   C_ghost            -
 -                     38                                   C_ghost            -
 -                     39                                   C_ghost            -
 -                     40                                   C_ghost            -
 -                     41                                   C_ghost            -
 -                     42                                   C_ghost            -
 -                     43                                   Na                 -
 -------------------------------------------------------------------------------

 *******************************************************************************
 *******************************************************************************
 **                                                                           **
 **     #####                         ##              ##                      **
 **    ##   ##            ##          ##              ##                      **
 **   ##     ##                       ##            ######                    **
 **   ##     ##  ##   ##  ##   #####  ##  ##   ####   ##    #####    #####    **
 **   ##     ##  ##   ##  ##  ##      ## ##   ##      ##   ##   ##  ##   ##   **
 **   ##  ## ##  ##   ##  ##  ##      ####     ###    ##   ######   ######    **
 **    ##  ###   ##   ##  ##  ##      ## ##      ##   ##   ##       ##        **
 **     #######   #####   ##   #####  ##  ##  ####    ##    #####   ##        **
 **           ##                                                    ##        **
 **                                                                           **
 **                                                ... make the atoms dance   **
 **                                                                           **
 **            Copyright (C) by CP2K developers group (2000-2022)             **
 **                      J. Chem. Phys. 152, 194103 (2020)                    **
 **                                                                           **
 *******************************************************************************


 TOTAL NUMBERS AND MAXIMUM NUMBERS

  Total number of            - Atomic kinds:                                   2
                             - Atoms:                                         43
                             - Shell sets:                                    43
                             - Shells:                                       215
                             - Primitive Cartesian functions:                217
                             - Cartesian basis functions:                    597
                             - Spherical basis functions:                    555

  Maximum angular momentum of- Orbital basis functions:                        2
                             - Local part of the GTH pseudopotential:          2
                             - Non-local part of the GTH pseudopotential:      1


 SCF PARAMETERS         Density guess:                                    ATOMIC
                        --------------------------------------------------------
                        max_scf:                                             100
                        max_scf_history:                                       0
                        max_diis:                                              4
                        --------------------------------------------------------
                        eps_scf:                                        3.00E-07
                        eps_scf_history:                                0.00E+00
                        eps_diis:                                       1.00E-01
                        eps_eigval:                                     1.00E-05
                        --------------------------------------------------------
                        level_shift [a.u.]:                             0.000000
                        added MOs                                       100  100
                        --------------------------------------------------------
                        Mixing method:                            BROYDEN_MIXING
                                                charge density mixing in g-space
                        --------------------------------------------------------
                        Smear method:                                FERMI_DIRAC
                        Electronic temperature [K]:                        300.0
                        Electronic temperature [a.u.]:                  9.50E-04
                        Accuracy threshold:                             1.00E-10
                        --------------------------------------------------------
                        Outer loop SCF in use 
                        No variables optimised in outer loop
                        eps_scf                                         1.00E-06
                        max_scf                                              150
                        DIIS optimization
                        DIIS buffer length                                     3
                        step_size                                       5.00E-01

 Spin 1

 Number of electrons:                                                          5
 Number of occupied orbitals:                                                  5
 Number of molecular orbitals:                                               105

 Spin 2

 Number of electrons:                                                          4
 Number of occupied orbitals:                                                  4
 Number of molecular orbitals:                                               104

 Number of orbital functions:                                                555
 Number of independent orbital functions:                                    555

 Extrapolation method: initial_guess


 SCF WAVEFUNCTION OPTIMIZATION

  Step     Update method      Time    Convergence         Total energy    Change
  ------------------------------------------------------------------------------
     1 NoMix/Diag. 0.10E+00    3.9     0.36544769       -47.1609970378 -4.72E+01
     2 Broy./Diag. 0.10E+00    8.3     0.01375098       -47.1371958117  2.38E-02
     3 Broy./Diag. 0.10E+00    8.6     0.07258158       -47.1616426255 -2.44E-02
     4 Broy./Diag. 0.10E+00    8.8     0.00054481       -47.1422791460  1.94E-02
     5 Broy./Diag. 0.10E+00    8.9     0.00647937       -47.1537566892 -1.15E-02
     6 Broy./Diag. 0.10E+00    9.1     0.00114392       -47.1489706409  4.79E-03
     7 Broy./Diag. 0.10E+00    9.3     0.00959860       -47.1528975632 -3.93E-03
     8 Broy./Diag. 0.10E+00    9.6     0.00362905       -47.1636640450 -1.08E-02
     9 Broy./Diag. 0.10E+00    9.9     0.00189414       -47.1632402093  4.24E-04
    10 Broy./Diag. 0.10E+00   10.3     0.00428285       -47.1643763848 -1.14E-03
    11 Broy./Diag. 0.10E+00   10.7     0.00093855       -47.1702698494 -5.89E-03
    12 Broy./Diag. 0.10E+00   11.1     0.00267457       -47.1651348869  5.13E-03
    13 Broy./Diag. 0.10E+00   11.5     0.00141767       -47.1658015861 -6.67E-04
    14 Broy./Diag. 0.10E+00   12.1     0.00039859       -47.1643116643  1.49E-03
    15 Broy./Diag. 0.10E+00   12.6     0.00065671       -47.1630576209  1.25E-03
    16 Broy./Diag. 0.10E+00   13.2     0.00015806       -47.1647187958 -1.66E-03
    17 Broy./Diag. 0.10E+00   13.9     0.00048750       -47.1646407764  7.80E-05
    18 Broy./Diag. 0.10E+00   13.8     0.00019216       -47.1651344300 -4.94E-04
    19 Broy./Diag. 0.10E+00   13.8     0.00012483       -47.1637952025  1.34E-03
    20 Broy./Diag. 0.10E+00   13.8     0.00017104       -47.1610654562  2.73E-03
    21 Broy./Diag. 0.10E+00   13.8     0.00005498       -47.1622769903 -1.21E-03
    22 Broy./Diag. 0.10E+00   13.8     0.00010755       -47.1613976634  8.79E-04
    23 Broy./Diag. 0.10E+00   13.8     0.00006058       -47.1608240214  5.74E-04
    24 Broy./Diag. 0.10E+00   13.8     0.00017214       -47.1584220764  2.40E-03
    25 Broy./Diag. 0.10E+00   13.8     0.00016218       -47.1589541633 -5.32E-04
    26 Broy./Diag. 0.10E+00   13.8     0.00004156       -47.1590125717 -5.84E-05
    27 Broy./Diag. 0.10E+00   13.8     0.00014823       -47.1593267447 -3.14E-04
    28 Broy./Diag. 0.10E+00   13.8     0.00011968       -47.1624837020 -3.16E-03
    29 Broy./Diag. 0.10E+00   13.8     0.00006599       -47.1631911472 -7.07E-04
    30 Broy./Diag. 0.10E+00   13.8     0.00005744       -47.1624789878  7.12E-04
    31 Broy./Diag. 0.10E+00   13.8     0.00012544       -47.1629485258 -4.70E-04
    32 Broy./Diag. 0.10E+00   13.8     0.00047386       -47.1631898247 -2.41E-04
    33 Broy./Diag. 0.10E+00   13.8     0.00007809       -47.1595259465  3.66E-03
    34 Broy./Diag. 0.10E+00   13.8     0.00006430       -47.1576136057  1.91E-03
    35 Broy./Diag. 0.10E+00   13.8     0.00022582       -47.1556968439  1.92E-03
    36 Broy./Diag. 0.10E+00   13.8     0.00026932       -47.1547798129  9.17E-04
    37 Broy./Diag. 0.10E+00   13.8     0.00008108       -47.1546053435  1.74E-04
    38 Broy./Diag. 0.10E+00   13.8     0.00018879       -47.1529983710  1.61E-03
    39 Broy./Diag. 0.10E+00   13.8     0.00002965       -47.1525486544  4.50E-04
    40 Broy./Diag. 0.10E+00   13.8     0.00015298       -47.1524545872  9.41E-05
    41 Broy./Diag. 0.10E+00   13.8     0.00006380       -47.1522845566  1.70E-04
    42 Broy./Diag. 0.10E+00   13.8     0.00003038       -47.1519855269  2.99E-04
    43 Broy./Diag. 0.10E+00   13.8     0.00004998       -47.1520939383 -1.08E-04
    44 Broy./Diag. 0.10E+00   13.8     0.00001848       -47.1521918900 -9.80E-05
    45 Broy./Diag. 0.10E+00   13.8     0.00002062       -47.1521592209  3.27E-05
    46 Broy./Diag. 0.10E+00   13.8     0.00004156       -47.1520516889  1.08E-04
    47 Broy./Diag. 0.10E+00   13.8     0.00001352       -47.1520677703 -1.61E-05
    48 Broy./Diag. 0.10E+00   13.8     0.00001293       -47.1520506261  1.71E-05
    49 Broy./Diag. 0.10E+00   13.7     0.00001404       -47.1520026615  4.80E-05
    50 Broy./Diag. 0.10E+00   13.8     0.00001463       -47.1521091025 -1.06E-04
    51 Broy./Diag. 0.10E+00   13.8     0.00000556       -47.1520860748  2.30E-05
    52 Broy./Diag. 0.10E+00   13.8     0.00000578       -47.1520206806  6.54E-05
    53 Broy./Diag. 0.10E+00   13.8     0.00000581       -47.1520425369 -2.19E-05
    54 Broy./Diag. 0.10E+00   13.8     0.00001293       -47.1520409668  1.57E-06
    55 Broy./Diag. 0.10E+00   13.8     0.00000394       -47.1520296975  1.13E-05
    56 Broy./Diag. 0.10E+00   13.8     0.00000327       -47.1520198297  9.87E-06
    57 Broy./Diag. 0.10E+00   13.8     0.00000293       -47.1520266444 -6.81E-06
    58 Broy./Diag. 0.10E+00   13.8     0.00000929       -47.1520145284  1.21E-05
    59 Broy./Diag. 0.10E+00   13.8     0.00000467       -47.1520019681  1.26E-05
    60 Broy./Diag. 0.10E+00   13.7     0.00000277       -47.1520129742 -1.10E-05
    61 Broy./Diag. 0.10E+00   13.7     0.00000208       -47.1520179585 -4.98E-06
    62 Broy./Diag. 0.10E+00   13.8     0.00000229       -47.1520192559 -1.30E-06
    63 Broy./Diag. 0.10E+00   13.7     0.00000354       -47.1520140734  5.18E-06
    64 Broy./Diag. 0.10E+00   13.8     0.00000331       -47.1520166229 -2.55E-06
    65 Broy./Diag. 0.10E+00   13.8     0.00000222       -47.1520182500 -1.63E-06
    66 Broy./Diag. 0.10E+00   13.8     0.00000215       -47.1520194142 -1.16E-06
    67 Broy./Diag. 0.10E+00   13.8     0.00000197       -47.1520168509  2.56E-06
    68 Broy./Diag. 0.10E+00   13.8     0.00000149       -47.1520160010  8.50E-07
    69 Broy./Diag. 0.10E+00   13.8     0.00000692       -47.1520158472  1.54E-07
    70 Broy./Diag. 0.10E+00   13.8     0.00000821       -47.1520245135 -8.67E-06
    71 Broy./Diag. 0.10E+00   13.8     0.00001027       -47.1520160743  8.44E-06
    72 Broy./Diag. 0.10E+00   13.8     0.00000127       -47.1520134190  2.66E-06
    73 Broy./Diag. 0.10E+00   13.7     0.00000418       -47.1520131053  3.14E-07
    74 Broy./Diag. 0.10E+00   13.7     0.00000308       -47.1520205636 -7.46E-06
    75 Broy./Diag. 0.10E+00   13.7     0.00000512       -47.1520182591  2.30E-06
    76 Broy./Diag. 0.10E+00   13.8     0.00000316       -47.1520240112 -5.75E-06
    77 Broy./Diag. 0.10E+00   13.7     0.00000194       -47.1520169293  7.08E-06
    78 Broy./Diag. 0.10E+00   13.7     0.00000083       -47.1520129686  3.96E-06
    79 Broy./Diag. 0.10E+00   13.8     0.00000085       -47.1520109856  1.98E-06
    80 Broy./Diag. 0.10E+00   13.8     0.00000370       -47.1520097067  1.28E-06
    81 Broy./Diag. 0.10E+00   13.8     0.00000393       -47.1520126105 -2.90E-06
    82 Broy./Diag. 0.10E+00   13.8     0.00000072       -47.1520084914  4.12E-06
    83 Broy./Diag. 0.10E+00   13.8     0.00000208       -47.1520119517 -3.46E-06
    84 Broy./Diag. 0.10E+00   13.7     0.00000039       -47.1520082681  3.68E-06
    85 Broy./Diag. 0.10E+00   13.7     0.00000252       -47.1520067290  1.54E-06
    86 Broy./Diag. 0.10E+00   13.8     0.00000407       -47.1519994484  7.28E-06
    87 Broy./Diag. 0.10E+00   13.8     0.00000104       -47.1519901196  9.33E-06
    88 Broy./Diag. 0.10E+00   13.8     0.00000358       -47.1519941194 -4.00E-06
    89 Broy./Diag. 0.10E+00   13.8     0.00000701       -47.1520051119 -1.10E-05
    90 Broy./Diag. 0.10E+00   13.8     0.00000328       -47.1520165299 -1.14E-05
    91 Broy./Diag. 0.10E+00   13.8     0.00000065       -47.1520129319  3.60E-06
    92 Broy./Diag. 0.10E+00   13.8     0.00000476       -47.1520115428  1.39E-06
    93 Broy./Diag. 0.10E+00   13.7     0.00000497       -47.1520166717 -5.13E-06
    94 Broy./Diag. 0.10E+00   13.7     0.00000048       -47.1520087523  7.92E-06
    95 Broy./Diag. 0.10E+00   13.7     0.00000030       -47.1520094332 -6.81E-07

  *** SCF run converged in    95 steps ***


  Electronic density on regular grids:         -9.0000017894       -0.0000017894
  Core density on regular grids:                9.0000000000       -0.0000000000
  Total charge density on r-space grids:       -0.0000017894
  Total charge density g-space grids:          -0.0000017894

  Overlap energy of the core charge distribution:               0.00000000000000
  Self energy of the core charge distribution:                -97.66279648848419
  Core Hamiltonian energy:                                     29.97396692573641
  Hartree energy:                                              27.58534388726850
  Exchange-correlation energy:                                 -7.04851330662390
  Dispersion energy:                                           -0.00001045020634
  Electronic entropic energy:                                  -0.00000000090977
  Fermi energy:                                                -0.08490153809868

  Total energy:                                               -47.15200943321582

  outer SCF iter =    1 RMS gradient =   0.30E-06 energy =        -47.1520094332
  outer SCF loop converged in   1 iterations or   95 steps


  Integrated absolute spin density  :                               1.0000186140
  WARNING: S**2 computation does not yet treat fractional occupied orbitals

 *** WARNING in qs_loc_utils.F:1500 :: User requested the calculation of ***
 *** the localized wavefunction but the section LOCALIZE was not         ***
 *** specified. Localization will not be performed!                      ***


 -------------------------------------------------------------------------------
 -                                                                             -
 -  BSSE CALCULATION         FRAGMENT CONF: 11        FRAGMENT SUBCONF: 11     -
 -                           CHARGE =     0           MULTIPLICITY =     0     -
 -                                                                             -
 -                 ATOM INDEX                              ATOM NAME           -
 -                 ----------                              ---------           -
 -                      1                                   C                  -
 -                      2                                   C                  -
 -                      3                                   C                  -
 -                      4                                   C                  -
 -                      5                                   C                  -
 -                      6                                   C                  -
 -                      7                                   C                  -
 -                      8                                   C                  -
 -                      9                                   C                  -
 -                     10                                   C                  -
 -                     11                                   C                  -
 -                     12                                   C                  -
 -                     13                                   C                  -
 -                     14                                   C                  -
 -                     15                                   C                  -
 -                     16                                   C                  -
 -                     17                                   C                  -
 -                     18                                   C                  -
 -                     19                                   C                  -
 -                     20                                   C                  -
 -                     21                                   C                  -
 -                     22                                   C                  -
 -                     23                                   C                  -
 -                     24                                   C                  -
 -                     25                                   C                  -
 -                     26                                   C                  -
 -                     27                                   C                  -
 -                     28                                   C                  -
 -                     29                                   C                  -
 -                     30                                   C                  -
 -                     31                                   C                  -
 -                     32                                   C                  -
 -                     33                                   C                  -
 -                     34                                   C                  -
 -                     35                                   C                  -
 -                     36                                   C                  -
 -                     37                                   C                  -
 -                     38                                   C                  -
[...]
    66 Broy./Diag. 0.10E+00   13.8     0.03636189      -284.1355684733  1.09E-02
    67 Broy./Diag. 0.10E+00   13.8     0.00237917      -284.1486040445 -1.30E-02
    68 Broy./Diag. 0.10E+00   13.9     0.01652976      -284.1502957636 -1.69E-03
    69 Broy./Diag. 0.10E+00   13.8     0.01836330      -284.1491936980  1.10E-03
    70 Broy./Diag. 0.10E+00   13.9     0.03255927      -284.1413865560  7.81E-03
    71 Broy./Diag. 0.10E+00   13.9     0.13976184      -284.1615500291 -2.02E-02
    72 Broy./Diag. 0.10E+00   13.8     0.12718537      -284.1187494741  4.28E-02
    73 Broy./Diag. 0.10E+00   13.8     0.02939712      -284.1433921496 -2.46E-02
    74 Broy./Diag. 0.10E+00   13.8     0.08596316      -284.1529042556 -9.51E-03
    75 Broy./Diag. 0.10E+00   13.8     0.03807811      -284.1602296079 -7.33E-03
    76 Broy./Diag. 0.10E+00   13.9     0.01037825      -284.1599289456  3.01E-04
    77 Broy./Diag. 0.10E+00   13.8     0.01561024      -284.1568260074  3.10E-03
    78 Broy./Diag. 0.10E+00   13.9     0.02392061      -284.1589636070 -2.14E-03
    79 Broy./Diag. 0.10E+00   13.8     0.01046912      -284.1616797356 -2.72E-03
    80 Broy./Diag. 0.10E+00   13.8     0.03891437      -284.1615247426  1.55E-04
    81 Broy./Diag. 0.10E+00   13.9     0.04518259      -284.1562119402  5.31E-03
    82 Broy./Diag. 0.10E+00   13.8     0.01244846      -284.1524309215  3.78E-03
    83 Broy./Diag. 0.10E+00   13.8     0.03691448      -284.1563696381 -3.94E-03
    84 Broy./Diag. 0.10E+00   13.8     0.02423332      -284.1546804670  1.69E-03
    85 Broy./Diag. 0.10E+00   13.8     0.02487719      -284.1466312338  8.05E-03
    86 Broy./Diag. 0.10E+00   13.9     0.02504341      -284.1558676685 -9.24E-03
    87 Broy./Diag. 0.10E+00   13.8     0.00230850      -284.1511068496  4.76E-03
    88 Broy./Diag. 0.10E+00   13.9     0.16341021      -284.1678574050 -1.68E-02
    89 Broy./Diag. 0.10E+00   13.8     0.19384052      -284.1015089937  6.63E-02
    90 Broy./Diag. 0.10E+00   13.8     0.00277592      -284.1593443692 -5.78E-02
    91 Broy./Diag. 0.10E+00   13.9     0.00308664      -284.1572579204  2.09E-03
    92 Broy./Diag. 0.10E+00   13.8     0.00977237      -284.1553870632  1.87E-03
    93 Broy./Diag. 0.10E+00   13.9     0.00592365      -284.1571462894 -1.76E-03
    94 Broy./Diag. 0.10E+00   13.9     0.00637474      -284.1579605162 -8.14E-04
    95 Broy./Diag. 0.10E+00   13.8     0.02056146      -284.1578477741  1.13E-04
    96 Broy./Diag. 0.10E+00   13.8     0.00529731      -284.1603870563 -2.54E-03
    97 Broy./Diag. 0.10E+00   13.8     0.00638162      -284.1604908966 -1.04E-04
    98 Broy./Diag. 0.10E+00   13.9     0.00841835      -284.1626123648 -2.12E-03
    99 Broy./Diag. 0.10E+00   13.8     0.00111720      -284.1618460656  7.66E-04
   100 Broy./Diag. 0.10E+00   13.8     0.00853211      -284.1623434958 -4.97E-04

  Leaving inner SCF loop after reaching   100 steps.


  Electronic density on regular grids:       -177.0000017896       -0.0000017896
  Core density on regular grids:              176.9999999998       -0.0000000002
  Total charge density on r-space grids:       -0.0000017898
  Total charge density g-space grids:          -0.0000017898

  Overlap energy of the core charge distribution:               0.00000805828988
  Self energy of the core charge distribution:               -658.40433691345299
  Core Hamiltonian energy:                                    204.16698996959957
  Hartree energy:                                             248.44064968423623
  Exchange-correlation energy:                                -78.28707760292572
  Dispersion energy:                                           -0.07749089604626
  Electronic entropic energy:                                  -0.00110752685129
  Fermi energy:                                                -0.14682795194392

  Total energy:                                              -284.16234349582254

  outer SCF iter =  121 RMS gradient =   0.85E-02 energy =       -284.1623434958
     1 Broy./Diag. 0.10E+00   20.4     0.34375180      -284.1290930248  3.33E-02
     2 Broy./Diag. 0.10E+00   13.9     0.33001076      -283.6883252881  4.41E-01
     3 Broy./Diag. 0.10E+00   13.8     0.02076149      -284.1665735671 -4.78E-01
     4 Broy./Diag. 0.10E+00   13.9     0.00353862      -284.1603374265  6.24E-03
     5 Broy./Diag. 0.10E+00   13.8     0.07674914      -284.1616686516 -1.33E-03
     6 Broy./Diag. 0.10E+00   13.9     0.12577136      -284.1741837367 -1.25E-02
     7 Broy./Diag. 0.10E+00   13.8     0.09710633      -284.1247792767  4.94E-02
     8 Broy./Diag. 0.10E+00   13.8     0.04934632      -284.1553304868 -3.06E-02
     9 Broy./Diag. 0.10E+00   13.8     0.14615367      -284.1654658648 -1.01E-02
    10 Broy./Diag. 0.10E+00   13.8     0.16494998      -284.1086316539  5.68E-02
    11 Broy./Diag. 0.10E+00   13.8     0.01654044      -284.1509351549 -4.23E-02
    12 Broy./Diag. 0.10E+00   13.9     0.01828448      -284.1505579160  3.77E-04
    13 Broy./Diag. 0.10E+00   13.9     0.05313806      -284.1658292816 -1.53E-02
    14 Broy./Diag. 0.10E+00   13.8     0.07853186      -284.1560620530  9.77E-03
    15 Broy./Diag. 0.10E+00   13.9     0.10074359      -284.1294912544  2.66E-02
    16 Broy./Diag. 0.10E+00   13.9     0.00762049      -284.1502593835 -2.08E-02
    17 Broy./Diag. 0.10E+00   13.8     0.01542010      -284.1463044838  3.95E-03
    18 Broy./Diag. 0.10E+00   13.8     0.02359608      -284.1447302208  1.57E-03
    19 Broy./Diag. 0.10E+00   13.8     0.00643932      -284.1522456511 -7.52E-03
    20 Broy./Diag. 0.10E+00   13.8     0.00559074      -284.1507432348  1.50E-03
    21 Broy./Diag. 0.10E+00   13.8     0.04470796      -284.1580177605 -7.27E-03
    22 Broy./Diag. 0.10E+00   13.9     0.04760416      -284.1434714057  1.45E-02
    23 Broy./Diag. 0.10E+00   13.8     0.02381568      -284.1601149524 -1.66E-02
    24 Broy./Diag. 0.10E+00   13.8     0.01337640      -284.1510037302  9.11E-03
    25 Broy./Diag. 0.10E+00   13.9     0.00170999      -284.1498758897  1.13E-03
    26 Broy./Diag. 0.10E+00   13.8     0.05642123      -284.1563806124 -6.50E-03
    27 Broy./Diag. 0.10E+00   13.8     0.03438251      -284.1391674303  1.72E-02
    28 Broy./Diag. 0.10E+00   13.8     0.00469212      -284.1479977956 -8.83E-03
    29 Broy./Diag. 0.10E+00   13.9     0.01135081      -284.1488935834 -8.96E-04
    30 Broy./Diag. 0.10E+00   13.8     0.00417266      -284.1465678683  2.33E-03
    31 Broy./Diag. 0.10E+00   13.8     0.00648753      -284.1454977015  1.07E-03
    32 Broy./Diag. 0.10E+00   13.8     0.01841617      -284.1437491628  1.75E-03
    33 Broy./Diag. 0.10E+00   13.8     0.02569575      -284.1374346242  6.31E-03
    34 Broy./Diag. 0.10E+00   13.9     0.01905690      -284.1431291094 -5.69E-03
    35 Broy./Diag. 0.10E+00   13.8     0.00613767      -284.1451611415 -2.03E-03
    36 Broy./Diag. 0.10E+00   13.8     0.05516046      -284.1477688184 -2.61E-03
    37 Broy./Diag. 0.10E+00   13.9     0.05927004      -284.1368102014  1.10E-02
    38 Broy./Diag. 0.10E+00   13.8     0.03237638      -284.1406064980 -3.80E-03
    39 Broy./Diag. 0.10E+00   13.9     0.06346656      -284.1559201374 -1.53E-02
    40 Broy./Diag. 0.10E+00   13.8     0.00178464      -284.1510732928  4.85E-03
    41 Broy./Diag. 0.10E+00   13.8     0.01106949      -284.1523801496 -1.31E-03
    42 Broy./Diag. 0.10E+00   13.9     0.04048880      -284.1532827463 -9.03E-04
    43 Broy./Diag. 0.10E+00   13.8     0.00781850      -284.1448630617  8.42E-03
    44 Broy./Diag. 0.10E+00   13.8     0.15889437      -284.1642336196 -1.94E-02
    45 Broy./Diag. 0.10E+00   13.8     0.03742047      -284.0826519959  8.16E-02
    46 Broy./Diag. 0.10E+00   13.8     0.08351805      -284.1020921207 -1.94E-02
    47 Broy./Diag. 0.10E+00   13.8     0.12537242      -284.1251785670 -2.31E-02
    48 Broy./Diag. 0.10E+00   13.8     0.02262580      -284.1573332064 -3.22E-02
    49 Broy./Diag. 0.10E+00   13.9     0.05191317      -284.1578439354 -5.11E-04
    50 Broy./Diag. 0.10E+00   13.8     0.01957452      -284.1505783006  7.27E-03
    51 Broy./Diag. 0.10E+00   13.8     0.03274020      -284.1419627983  8.62E-03
    52 Broy./Diag. 0.10E+00   13.9     0.01329452      -284.1496223310 -7.66E-03
    53 Broy./Diag. 0.10E+00   13.8     0.00285787      -284.1521636926 -2.54E-03
    54 Broy./Diag. 0.10E+00   13.9     0.01265337      -284.1498524534  2.31E-03
    55 Broy./Diag. 0.10E+00   13.9     0.02902194      -284.1528417661 -2.99E-03
    56 Broy./Diag. 0.10E+00   13.8     0.00973895      -284.1573233742 -4.48E-03
    57 Broy./Diag. 0.10E+00   13.8     0.00229888      -284.1530189924  4.30E-03
    58 Broy./Diag. 0.10E+00   13.8     0.00502834      -284.1532328007 -2.14E-04
    59 Broy./Diag. 0.10E+00   13.8     0.02436209      -284.1601156656 -6.88E-03
    60 Broy./Diag. 0.10E+00   13.9     0.01083379      -284.1498032439  1.03E-02
    61 Broy./Diag. 0.10E+00   13.9     0.00812263      -284.1529554177 -3.15E-03
    62 Broy./Diag. 0.10E+00   13.8     0.06972562      -284.1621402626 -9.18E-03
    63 Broy./Diag. 0.10E+00   13.9     0.03417801      -284.1408065406  2.13E-02
    64 Broy./Diag. 0.10E+00   13.9     0.01891511      -284.1511098568 -1.03E-02
    65 Broy./Diag. 0.10E+00   13.8     0.00348938      -284.1552864716 -4.18E-03
    66 Broy./Diag. 0.10E+00   13.9     0.03517779      -284.1590122563 -3.73E-03
    67 Broy./Diag. 0.10E+00   13.8     0.03446674      -284.1452552474  1.38E-02
    68 Broy./Diag. 0.10E+00   13.8     0.02784046      -284.1481731356 -2.92E-03
    69 Broy./Diag. 0.10E+00   13.8     0.05265847      -284.1694701791 -2.13E-02
    70 Broy./Diag. 0.10E+00   13.8     0.01484225      -284.1490037262  2.05E-02
    71 Broy./Diag. 0.10E+00   13.8     0.01516792      -284.1524705386 -3.47E-03
    72 Broy./Diag. 0.10E+00   13.8     0.04333197      -284.1486614039  3.81E-03
    73 Broy./Diag. 0.10E+00   13.9     0.03500048      -284.1613948888 -1.27E-02
    74 Broy./Diag. 0.10E+00   13.8     0.04914424      -284.1359275718  2.55E-02
    75 Broy./Diag. 0.10E+00   13.8     0.02198987      -284.1445230229 -8.60E-03
    76 Broy./Diag. 0.10E+00   13.9     0.03689590      -284.1461166903 -1.59E-03
    77 Broy./Diag. 0.10E+00   13.8     0.02695630      -284.1406657977  5.45E-03
    78 Broy./Diag. 0.10E+00   13.8     0.25682879      -284.1908491124 -5.02E-02
    79 Broy./Diag. 0.10E+00   13.8     0.17188569      -284.0647960595  1.26E-01
    80 Broy./Diag. 0.10E+00   13.8     0.07858816      -284.1316383138 -6.68E-02
    81 Broy./Diag. 0.10E+00   13.8     0.03237782      -284.1525678427 -2.09E-02
    82 Broy./Diag. 0.10E+00   13.8     0.01912351      -284.1625263981 -9.96E-03
    83 Broy./Diag. 0.10E+00   13.9     0.01277523      -284.1563343238  6.19E-03
    84 Broy./Diag. 0.10E+00   13.8     0.00374847      -284.1582730516 -1.94E-03
    85 Broy./Diag. 0.10E+00   13.8     0.03265996      -284.1610268329 -2.75E-03
    86 Broy./Diag. 0.10E+00   13.8     0.19531204      -284.1751435298 -1.41E-02
    87 Broy./Diag. 0.10E+00   13.8     0.01551673      -284.1260271448  4.91E-02
    88 Broy./Diag. 0.10E+00   13.9     0.00306738      -284.1169507778  9.08E-03
    89 Broy./Diag. 0.10E+00   13.9     0.02335892      -284.1102036900  6.75E-03
    90 Broy./Diag. 0.10E+00   13.9     0.00926167      -284.1203753850 -1.02E-02
    91 Broy./Diag. 0.10E+00   13.9     0.01493842      -284.1188526833  1.52E-03
    92 Broy./Diag. 0.10E+00   13.8     0.00276231      -284.1203574356 -1.50E-03
    93 Broy./Diag. 0.10E+00   13.9     0.04093637      -284.1220552339 -1.70E-03
    94 Broy./Diag. 0.10E+00   13.9     0.00520020      -284.1053138308  1.67E-02
    95 Broy./Diag. 0.10E+00   13.8     0.02197601      -284.1064988032 -1.18E-03
    96 Broy./Diag. 0.10E+00   13.9     0.03549233      -284.0834513127  2.30E-02
    97 Broy./Diag. 0.10E+00   13.8     0.05815467      -284.0979938591 -1.45E-02
    98 Broy./Diag. 0.10E+00   13.8     0.07303379      -284.1146430535 -1.66E-02
    99 Broy./Diag. 0.10E+00   13.8     0.00497128      -284.1394423660 -2.48E-02
   100 Broy./Diag. 0.10E+00   13.8     0.04257706      -284.1409742828 -1.53E-03

  Leaving inner SCF loop after reaching   100 steps.


  Electronic density on regular grids:       -177.0000017896       -0.0000017896
  Core density on regular grids:              176.9999999998       -0.0000000002
  Total charge density on r-space grids:       -0.0000017898
  Total charge density g-space grids:          -0.0000017898

  Overlap energy of the core charge distribution:               0.00000805828988
  Self energy of the core charge distribution:               -658.40433691345299
  Core Hamiltonian energy:                                    204.19424756800859
  Hartree energy:                                             248.44213789214200
  Exchange-correlation energy:                                -78.29456400763381
  Dispersion energy:                                           -0.07749089604626
  Electronic entropic energy:                                  -0.00106076725194
  Fermi energy:                                                -0.14632248520666

  Total energy:                                              -284.14097428284407

  outer SCF iter =  122 RMS gradient =   0.43E-01 energy =       -284.1409742828
     1 Broy./Diag. 0.10E+00   20.4     0.16713570      -284.1429805535 -2.01E-03
     2 Broy./Diag. 0.10E+00   13.8     0.20160968      -284.1150106917  2.80E-02
     3 Broy./Diag. 0.10E+00   13.8     0.04645756      -284.1437889950 -2.88E-02
     4 Broy./Diag. 0.10E+00   13.9     0.07520363      -284.1682693716 -2.45E-02
     5 Broy./Diag. 0.10E+00   13.8     0.05610046      -284.1582483499  1.00E-02
     6 Broy./Diag. 0.10E+00   13.8     0.00519235      -284.1400560807  1.82E-02
     7 Broy./Diag. 0.10E+00   13.8     0.00723195      -284.1378208615  2.24E-03
     8 Broy./Diag. 0.10E+00   13.8     0.01882033      -284.1347692613  3.05E-03
     9 Broy./Diag. 0.10E+00   13.9     0.01683101      -284.1403198696 -5.55E-03
    10 Broy./Diag. 0.10E+00   13.8     0.00638142      -284.1465482405 -6.23E-03
    11 Broy./Diag. 0.10E+00   13.8     0.01855200      -284.1529094451 -6.36E-03
    12 Broy./Diag. 0.10E+00   13.9     0.07301040      -284.1549383187 -2.03E-03
    13 Broy./Diag. 0.10E+00   13.8     0.02928104      -284.1298412819  2.51E-02
    14 Broy./Diag. 0.10E+00   13.8     0.01519539      -284.1382398490 -8.40E-03
    15 Broy./Diag. 0.10E+00   13.8     0.00458289      -284.1332138224  5.03E-03
    16 Broy./Diag. 0.10E+00   13.8     0.00549227      -284.1352892111 -2.08E-03
    17 Broy./Diag. 0.10E+00   13.8     0.00214746      -284.1357356150 -4.46E-04
    18 Broy./Diag. 0.10E+00   13.8     0.00468163      -284.1327578323  2.98E-03
    19 Broy./Diag. 0.10E+00   13.8     0.05706135      -284.1283380994  4.42E-03
    20 Broy./Diag. 0.10E+00   13.8     0.07915828      -284.1298003251 -1.46E-03
    21 Broy./Diag. 0.10E+00   13.8     0.06619496      -284.1650704943 -3.53E-02
    22 Broy./Diag. 0.10E+00   13.8     0.07622460      -284.1538925153  1.12E-02
    23 Broy./Diag. 0.10E+00   13.8     0.00754971      -284.1394192788  1.45E-02
    24 Broy./Diag. 0.10E+00   13.8     0.01037305      -284.1390392161  3.80E-04
    25 Broy./Diag. 0.10E+00   13.9     0.01474150      -284.1327910311  6.25E-03
    26 Broy./Diag. 0.10E+00   13.8     0.01198290      -284.1408728725 -8.08E-03
    27 Broy./Diag. 0.10E+00   13.9     0.00046339      -284.1370326801  3.84E-03
    28 Broy./Diag. 0.10E+00   13.9     0.01323028      -284.1388087920 -1.78E-03
    29 Broy./Diag. 0.10E+00   13.8     0.01656634      -284.1361899736  2.62E-03
    30 Broy./Diag. 0.10E+00   13.9     0.02055237      -284.1321220662  4.07E-03
    31 Broy./Diag. 0.10E+00   13.8     0.00228903      -284.1256194379  6.50E-03
    32 Broy./Diag. 0.10E+00   13.8     0.00376797      -284.1257379915 -1.19E-04
    33 Broy./Diag. 0.10E+00   13.8     0.00805380      -284.1227413389  3.00E-03
    34 Broy./Diag. 0.10E+00   13.8     0.03525650      -284.1307236253 -7.98E-03
    35 Broy./Diag. 0.10E+00   13.8     0.01176962      -284.1127970405  1.79E-02
    36 Broy./Diag. 0.10E+00   13.8     0.02613203      -284.1168881232 -4.09E-03
    37 Broy./Diag. 0.10E+00   13.9     0.20132289      -284.1023754816  1.45E-02
    38 Broy./Diag. 0.10E+00   13.8     0.22673290      -284.1899924259 -8.76E-02
    39 Broy./Diag. 0.10E+00   13.8     0.05566239      -284.1287646113  6.12E-02
    40 Broy./Diag. 0.10E+00   13.8     0.00421627      -284.0955239519  3.32E-02
    41 Broy./Diag. 0.10E+00   13.8     0.00058337      -284.0907128871  4.81E-03
    42 Broy./Diag. 0.10E+00   13.9     0.00787019      -284.0936860593 -2.97E-03
    43 Broy./Diag. 0.10E+00   13.8     0.00125441      -284.0826673345  1.10E-02
    44 Broy./Diag. 0.10E+00   13.8     0.00411427      -284.0863035372 -3.64E-03
    45 Broy./Diag. 0.10E+00   13.9     0.00470572      -284.0802199390  6.08E-03
    46 Broy./Diag. 0.10E+00   13.8     0.00629042      -284.0808703145 -6.50E-04
    47 Broy./Diag. 0.10E+00   13.8     0.01103763      -284.0847406045 -3.87E-03
    48 Broy./Diag. 0.10E+00   13.9     0.02998717      -284.1046986765 -2.00E-02
    49 Broy./Diag. 0.10E+00   13.8     0.00111160      -284.0587691217  4.59E-02
    50 Broy./Diag. 0.10E+00   13.9     0.00467516      -284.0615185674 -2.75E-03
    51 Broy./Diag. 0.10E+00   13.9     0.00189444      -284.0512231835  1.03E-02
    52 Broy./Diag. 0.10E+00   13.8     0.01488369      -284.0429941321  8.23E-03
    53 Broy./Diag. 0.10E+00   13.8     0.00530264      -284.0036085085  3.94E-02
    54 Broy./Diag. 0.10E+00   13.8     0.25053737      -283.9724428698  3.12E-02
    55 Broy./Diag. 0.10E+00   13.8     0.05507764      -284.1338046861 -1.61E-01
    56 Broy./Diag. 0.10E+00   13.9     0.02309522      -284.1571148555 -2.33E-02
    57 Broy./Diag. 0.10E+00   13.8     0.03179455      -284.1555116678  1.60E-03
    58 Broy./Diag. 0.10E+00   13.9     0.04044683      -284.1500528424  5.46E-03
    59 Broy./Diag. 0.10E+00   13.8     0.03323629      -284.1277044131  2.23E-02
    60 Broy./Diag. 0.10E+00   13.8     0.00640626      -284.1375099177 -9.81E-03
    61 Broy./Diag. 0.10E+00   13.9     0.00102823      -284.1419723000 -4.46E-03
    62 Broy./Diag. 0.10E+00   13.8     0.00130374      -284.1453524539 -3.38E-03
    63 Broy./Diag. 0.10E+00   13.8     0.01287263      -284.1502204985 -4.87E-03
    64 Broy./Diag. 0.10E+00   13.9     0.00705042      -284.1468543742  3.37E-03
    65 Broy./Diag. 0.10E+00   13.8     0.00236398      -284.1492595250 -2.41E-03
    66 Broy./Diag. 0.10E+00   13.8     0.00067706      -284.1482314999  1.03E-03
    67 Broy./Diag. 0.10E+00   13.8     0.00120455      -284.1477393124  4.92E-04
    68 Broy./Diag. 0.10E+00   13.8     0.00883395      -284.1458535315  1.89E-03
    69 Broy./Diag. 0.10E+00   13.9     0.00636507      -284.1485843225 -2.73E-03
    70 Broy./Diag. 0.10E+00   13.8     0.18148123      -284.1677585881 -1.92E-02
    71 Broy./Diag. 0.10E+00   13.8     0.14656294      -284.0968097046  7.09E-02
    72 Broy./Diag. 0.10E+00   13.8     0.03742218      -284.1421768216 -4.54E-02
    73 Broy./Diag. 0.10E+00   13.8     0.03963840      -284.1453624723 -3.19E-03
    74 Broy./Diag. 0.10E+00   13.8     0.09019727      -284.1719633512 -2.66E-02
    75 Broy./Diag. 0.10E+00   13.8     0.00924027      -284.1401401305  3.18E-02
    76 Broy./Diag. 0.10E+00   13.8     0.00386199      -284.1427204363 -2.58E-03
    77 Broy./Diag. 0.10E+00   13.8     0.00417133      -284.1423700101  3.50E-04
    78 Broy./Diag. 0.10E+00   13.9     0.00765195      -284.1438990138 -1.53E-03
    79 Broy./Diag. 0.10E+00   13.8     0.00130064      -284.1430939855  8.05E-04
    80 Broy./Diag. 0.10E+00   13.9     0.05672617      -284.1366531988  6.44E-03
    81 Broy./Diag. 0.10E+00   13.9     0.01886046      -284.1461671584 -9.51E-03
    82 Broy./Diag. 0.10E+00   13.8     0.03124956      -284.1557163816 -9.55E-03
    83 Broy./Diag. 0.10E+00   13.9     0.00801260      -284.1465485706  9.17E-03
