 DBCSR| CPU Multiplication driver                                           BLAS (U)
 DBCSR| Multrec recursion limit                                              512 (U)
 DBCSR| Multiplication stack size                                           1000 (D)
 DBCSR| Maximum elements for images                                    UNLIMITED (U)
 DBCSR| Multiplicative factor virtual images                                   1 (U)
 DBCSR| Use multiplication densification                                       T (D)
 DBCSR| Multiplication size stacks                                             3 (U)
 DBCSR| Use memory pool for CPU allocation                                     F (U)
 DBCSR| Number of 3D layers                                               SINGLE (U)
 DBCSR| Use MPI memory allocation                                              F (U)
 DBCSR| Use RMA algorithm                                                      F (U)
 DBCSR| Use Communication thread                                               T (U)
 DBCSR| Communication thread load                                             87 (D)
 DBCSR| MPI: My process id                                                     0
 DBCSR| MPI: Number of processes                                              16
 DBCSR| OMP: Current number of threads                                         1
 DBCSR| OMP: Max number of threads                                             1
 DBCSR| Split modifier for TAS multiplication algorithm                  1.0E+00 (U)


  **** **** ******  **  PROGRAM STARTED AT               2025-07-16 18:03:31.334
 ***** ** ***  *** **   PROGRAM STARTED ON                            sebnode120
 **    ****   ******    PROGRAM STARTED BY                                luehrs
 ***** **    ** ** **   PROGRAM PROCESS ID                                652655
  **** **  *******  **  PROGRAM STARTED IN /home/luehrs/PhD/Sodium_batteries/Sod
                                           ium-graphene-edge/Armchair_3/No_hydro
                                           gen

 CP2K| version string:                                       CP2K version 2023.1
 CP2K| source code revision number:                                  git:b888bd8
 CP2K| cp2kflags: omp libint fftw3 libxc elpa parallel scalapack spglib         
 CP2K| is freely available from                            https://www.cp2k.org/
 CP2K| Program compiled at                          Tue Jan 10 19:52:03 UTC 2023
 CP2K| Program compiled on                                            x86-ubc-01
 CP2K| Program compiled for                                Linux-x86_64-gfortran
 CP2K| Data directory path                                       /usr/share/cp2k
 CP2K| Input file name                                        input.armchair.inp

 GLOBAL| Force Environment number                                              1
 GLOBAL| Basis set file name                                      ./BASIS_MOLOPT
 GLOBAL| Potential file name                                    ./GTH_POTENTIALS
 GLOBAL| MM Potential file name                                     MM_POTENTIAL
 GLOBAL| Coordinate file name           ./graphene_armchair_no_hydrogen_relaxed.
 GLOBAL| Method name                                                        CP2K
 GLOBAL| Project name                                 graphene_armchair_BSSE_PBE
 GLOBAL| Run type                                                           BSSE
 GLOBAL| FFT library                                                       FFTW3
 GLOBAL| Diagonalization library                                            ELPA
 GLOBAL| DGEMM library                                                      BLAS
 GLOBAL| Minimum number of eigenvectors for ELPA usage                        16
 GLOBAL| Orthonormality check for eigenvectors                          DISABLED
 GLOBAL| Matrix multiplication library                                 ScaLAPACK
 GLOBAL| All-to-all communication in single precision                          F
 GLOBAL| FFTs using library dependent lengths                                  F
 GLOBAL| Grid backend                                                       AUTO
 GLOBAL| Global print level                                                  LOW
 GLOBAL| MPI I/O enabled                                                       T
 GLOBAL| Total number of message passing processes                            16
 GLOBAL| Number of threads for this process                                    1
 GLOBAL| This output is from process                                           0
 GLOBAL| Stack size for threads created by OpenMP (OMP_STACKSIZE)        default
 GLOBAL| CPU model name                 Intel(R) Xeon(R) Gold 6144 CPU @ 3.50GHz

 MEMORY| system memory details [Kb]
 MEMORY|                        rank 0           min           max       average
 MEMORY| MemTotal             65585096      65585096      65585096      65585096
 MEMORY| MemFree              63018976      63018976      63018976      63018976
 MEMORY| Buffers                282112        282112        282112        282112
 MEMORY| Cached                 330904        330904        330904        330904
 MEMORY| Slab                   219152        219152        219152        219152
 MEMORY| SReclaimable            79764         79764         79764         79764
 MEMORY| MemLikelyFree        63711756      63711756      63711756      63711756


 GENERATE|  Preliminary Number of Bonds generated:                             0
 GENERATE|  Achieved consistency in connectivity generation.

 *******************************************************************************
 *******************************************************************************
 **                                                                           **
 **     #####                         ##              ##                      **
 **    ##   ##            ##          ##              ##                      **
 **   ##     ##                       ##            ######                    **
 **   ##     ##  ##   ##  ##   #####  ##  ##   ####   ##    #####    #####    **
 **   ##     ##  ##   ##  ##  ##      ## ##   ##      ##   ##   ##  ##   ##   **
 **   ##  ## ##  ##   ##  ##  ##      ####     ###    ##   ######   ######    **
 **    ##  ###   ##   ##  ##  ##      ## ##      ##   ##   ##       ##        **
 **     #######   #####   ##   #####  ##  ##  ####    ##    #####   ##        **
 **           ##                                                    ##        **
 **                                                                           **
 **                                                ... make the atoms dance   **
 **                                                                           **
 **            Copyright (C) by CP2K developers group (2000-2022)             **
 **                      J. Chem. Phys. 152, 194103 (2020)                    **
 **                                                                           **
 *******************************************************************************


 TOTAL NUMBERS AND MAXIMUM NUMBERS

  Total number of            - Atomic kinds:                                   2
                             - Atoms:                                         43
                             - Shell sets:                                    43
                             - Shells:                                       215
                             - Primitive Cartesian functions:                217
                             - Cartesian basis functions:                    597
                             - Spherical basis functions:                    555

  Maximum angular momentum of- Orbital basis functions:                        2
                             - Local part of the GTH pseudopotential:          2
                             - Non-local part of the GTH pseudopotential:      1


 SCF PARAMETERS         Density guess:                                    ATOMIC
                        --------------------------------------------------------
                        max_scf:                                             100
                        max_scf_history:                                       0
                        max_diis:                                              4
                        --------------------------------------------------------
                        eps_scf:                                        3.00E-07
                        eps_scf_history:                                0.00E+00
                        eps_diis:                                       1.00E-01
                        eps_eigval:                                     1.00E-05
                        --------------------------------------------------------
                        level_shift [a.u.]:                             0.000000
                        added MOs                                       100    0
                        --------------------------------------------------------
                        Mixing method:                            BROYDEN_MIXING
                                                charge density mixing in g-space
                        --------------------------------------------------------
                        Smear method:                                FERMI_DIRAC
                        Electronic temperature [K]:                        300.0
                        Electronic temperature [a.u.]:                  9.50E-04
                        Accuracy threshold:                             1.00E-10
                        --------------------------------------------------------
                        Outer loop SCF in use 
                        No variables optimised in outer loop
                        eps_scf                                         1.00E-06
                        max_scf                                              150
                        DIIS optimization
                        DIIS buffer length                                     3
                        step_size                                       5.00E-01

 -------------------------------------------------------------------------------
 -                                                                             -
 -  BSSE CALCULATION         FRAGMENT CONF: 10        FRAGMENT SUBCONF: 10     -
 -                           CHARGE =     0           MULTIPLICITY =     0     -
 -                                                                             -
 -                 ATOM INDEX                              ATOM NAME           -
 -                 ----------                              ---------           -
 -                      1                                   C                  -
 -                      2                                   C                  -
 -                      3                                   C                  -
 -                      4                                   C                  -
 -                      5                                   C                  -
 -                      6                                   C                  -
 -                      7                                   C                  -
 -                      8                                   C                  -
 -                      9                                   C                  -
 -                     10                                   C                  -
 -                     11                                   C                  -
 -                     12                                   C                  -
 -                     13                                   C                  -
 -                     14                                   C                  -
 -                     15                                   C                  -
 -                     16                                   C                  -
 -                     17                                   C                  -
 -                     18                                   C                  -
 -                     19                                   C                  -
 -                     20                                   C                  -
 -                     21                                   C                  -
 -                     22                                   C                  -
 -                     23                                   C                  -
 -                     24                                   C                  -
 -                     25                                   C                  -
 -                     26                                   C                  -
 -                     27                                   C                  -
 -                     28                                   C                  -
 -                     29                                   C                  -
 -                     30                                   C                  -
 -                     31                                   C                  -
 -                     32                                   C                  -
 -                     33                                   C                  -
 -                     34                                   C                  -
 -                     35                                   C                  -
 -                     36                                   C                  -
 -                     37                                   C                  -
 -                     38                                   C                  -
 -                     39                                   C                  -
 -                     40                                   C                  -
 -                     41                                   C                  -
 -                     42                                   C                  -
 -------------------------------------------------------------------------------

 *******************************************************************************
 *******************************************************************************
 **                                                                           **
 **     #####                         ##              ##                      **
 **    ##   ##            ##          ##              ##                      **
 **   ##     ##                       ##            ######                    **
 **   ##     ##  ##   ##  ##   #####  ##  ##   ####   ##    #####    #####    **
 **   ##     ##  ##   ##  ##  ##      ## ##   ##      ##   ##   ##  ##   ##   **
 **   ##  ## ##  ##   ##  ##  ##      ####     ###    ##   ######   ######    **
 **    ##  ###   ##   ##  ##  ##      ## ##      ##   ##   ##       ##        **
 **     #######   #####   ##   #####  ##  ##  ####    ##    #####   ##        **
 **           ##                                                    ##        **
 **                                                                           **
 **                                                ... make the atoms dance   **
 **                                                                           **
 **            Copyright (C) by CP2K developers group (2000-2022)             **
 **                      J. Chem. Phys. 152, 194103 (2020)                    **
 **                                                                           **
 *******************************************************************************


 TOTAL NUMBERS AND MAXIMUM NUMBERS

  Total number of            - Atomic kinds:                                   1
                             - Atoms:                                         42
                             - Shell sets:                                    42
                             - Shells:                                       210
                             - Primitive Cartesian functions:                210
                             - Cartesian basis functions:                    588
                             - Spherical basis functions:                    546

  Maximum angular momentum of- Orbital basis functions:                        2
                             - Local part of the GTH pseudopotential:          2
                             - Non-local part of the GTH pseudopotential:      0


 SCF PARAMETERS         Density guess:                                    ATOMIC
                        --------------------------------------------------------
                        max_scf:                                             100
                        max_scf_history:                                       0
                        max_diis:                                              4
                        --------------------------------------------------------
                        eps_scf:                                        3.00E-07
                        eps_scf_history:                                0.00E+00
                        eps_diis:                                       1.00E-01
                        eps_eigval:                                     1.00E-05
                        --------------------------------------------------------
                        level_shift [a.u.]:                             0.000000
                        added MOs                                       100    0
                        --------------------------------------------------------
                        Mixing method:                            BROYDEN_MIXING
                                                charge density mixing in g-space
                        --------------------------------------------------------
                        Smear method:                                FERMI_DIRAC
                        Electronic temperature [K]:                        300.0
                        Electronic temperature [a.u.]:                  9.50E-04
                        Accuracy threshold:                             1.00E-10
                        --------------------------------------------------------
                        Outer loop SCF in use 
                        No variables optimised in outer loop
                        eps_scf                                         1.00E-06
                        max_scf                                              150
                        DIIS optimization
                        DIIS buffer length                                     3
                        step_size                                       5.00E-01

 Number of electrons:                                                        168
 Number of occupied orbitals:                                                 84
 Number of molecular orbitals:                                               184

 Number of orbital functions:                                                546
 Number of independent orbital functions:                                    546

 Extrapolation method: initial_guess


 SCF WAVEFUNCTION OPTIMIZATION

  Step     Update method      Time    Convergence         Total energy    Change
  ------------------------------------------------------------------------------
     1 NoMix/Diag. 0.10E+00    2.2     0.92689159      -236.0468780821 -2.36E+02
     2 Broy./Diag. 0.10E+00    4.2     0.02290250      -229.5816586533  6.47E+00
     3 Broy./Diag. 0.10E+00    4.4     0.12816441      -234.0647280853 -4.48E+00
     4 Broy./Diag. 0.10E+00    4.4     0.01636091      -236.6592892425 -2.59E+00
     5 Broy./Diag. 0.10E+00    4.5     0.05253516      -237.3245396097 -6.65E-01
     6 Broy./Diag. 0.10E+00    4.6     0.00874679      -237.5900554442 -2.66E-01
     7 Broy./Diag. 0.10E+00    4.7     0.02711806      -237.6790779518 -8.90E-02
     8 Broy./Diag. 0.10E+00    4.9     0.00899218      -237.7590573258 -8.00E-02
     9 Broy./Diag. 0.10E+00    5.0     0.00960943      -237.7920872640 -3.30E-02
    10 Broy./Diag. 0.10E+00    5.2     0.00790936      -237.8298201258 -3.77E-02
    11 Broy./Diag. 0.10E+00    5.4     0.01163101      -237.8491344637 -1.93E-02
    12 Broy./Diag. 0.10E+00    5.6     0.00788804      -237.8811598267 -3.20E-02
    13 Broy./Diag. 0.10E+00    5.8     0.00323666      -237.8866194923 -5.46E-03
    14 Broy./Diag. 0.10E+00    6.1     0.00160756      -237.9067526513 -2.01E-02
    15 Broy./Diag. 0.10E+00    6.4     0.00167045      -237.9249369225 -1.82E-02
    16 Broy./Diag. 0.10E+00    6.7     0.00147403      -237.9391363548 -1.42E-02
    17 Broy./Diag. 0.10E+00    7.0     0.00165397      -237.9493674781 -1.02E-02
    18 Broy./Diag. 0.10E+00    7.0     0.00051475      -237.9567386941 -7.37E-03
    19 Broy./Diag. 0.10E+00    7.0     0.00043002      -237.9582733345 -1.53E-03
    20 Broy./Diag. 0.10E+00    7.0     0.00042065      -237.9602992263 -2.03E-03
    21 Broy./Diag. 0.10E+00    7.0     0.00059294      -237.9602883345  1.09E-05
    22 Broy./Diag. 0.10E+00    7.0     0.00039745      -237.9600547513  2.34E-04
    23 Broy./Diag. 0.10E+00    7.0     0.00013303      -237.9608154818 -7.61E-04
    24 Broy./Diag. 0.10E+00    7.0     0.00016573      -237.9631057825 -2.29E-03
    25 Broy./Diag. 0.10E+00    7.0     0.00014566      -237.9665562822 -3.45E-03
    26 Broy./Diag. 0.10E+00    7.0     0.00008328      -237.9690954154 -2.54E-03
    27 Broy./Diag. 0.10E+00    7.0     0.00011409      -237.9711097401 -2.01E-03
    28 Broy./Diag. 0.10E+00    7.0     0.00008883      -237.9724133239 -1.30E-03
    29 Broy./Diag. 0.10E+00    7.0     0.00004583      -237.9728147023 -4.01E-04
    30 Broy./Diag. 0.10E+00    7.0     0.00007250      -237.9728164746 -1.77E-06
    31 Broy./Diag. 0.10E+00    7.0     0.00004034      -237.9730088028 -1.92E-04
    32 Broy./Diag. 0.10E+00    7.0     0.00003845      -237.9729990357  9.77E-06
    33 Broy./Diag. 0.10E+00    7.0     0.00001941      -237.9731411805 -1.42E-04
    34 Broy./Diag. 0.10E+00    7.0     0.00002848      -237.9731139474  2.72E-05
    35 Broy./Diag. 0.10E+00    7.0     0.00000949      -237.9732119582 -9.80E-05
    36 Broy./Diag. 0.10E+00    7.0     0.00002472      -237.9730851234  1.27E-04
    37 Broy./Diag. 0.10E+00    7.0     0.00000722      -237.9730353064  4.98E-05
    38 Broy./Diag. 0.10E+00    7.0     0.00001132      -237.9730439416 -8.64E-06
    39 Broy./Diag. 0.10E+00    7.0     0.00000781      -237.9731051314 -6.12E-05
    40 Broy./Diag. 0.10E+00    7.0     0.00000523      -237.9732375298 -1.32E-04
    41 Broy./Diag. 0.10E+00    7.0     0.00000887      -237.9733768228 -1.39E-04
    42 Broy./Diag. 0.10E+00    7.0     0.00000549      -237.9734519667 -7.51E-05
    43 Broy./Diag. 0.10E+00    6.9     0.00000477      -237.9734971874 -4.52E-05
    44 Broy./Diag. 0.10E+00    7.0     0.00000328      -237.9735149638 -1.78E-05
    45 Broy./Diag. 0.10E+00    7.0     0.00000102      -237.9735342777 -1.93E-05
    46 Broy./Diag. 0.10E+00    7.0     0.00000459      -237.9735374733 -3.20E-06
    47 Broy./Diag. 0.10E+00    7.0     0.00000146      -237.9735432514 -5.78E-06
    48 Broy./Diag. 0.10E+00    7.0     0.00000174      -237.9735457962 -2.54E-06
    49 Broy./Diag. 0.10E+00    6.9     0.00000194      -237.9735446167  1.18E-06
    50 Broy./Diag. 0.10E+00    7.0     0.00000073      -237.9735418448  2.77E-06
    51 Broy./Diag. 0.10E+00    7.0     0.00000112      -237.9735411374  7.07E-07
    52 Broy./Diag. 0.10E+00    7.0     0.00000044      -237.9735397225  1.41E-06
    53 Broy./Diag. 0.10E+00    7.0     0.00000068      -237.9735394997  2.23E-07
    54 Broy./Diag. 0.10E+00    7.0     0.00000034      -237.9735397665 -2.67E-07
    55 Broy./Diag. 0.10E+00    6.9     0.00000026      -237.9735402554 -4.89E-07

  *** SCF run converged in    55 steps ***


  Electronic density on regular grids:       -168.0000000000        0.0000000000
  Core density on regular grids:              167.9999999999       -0.0000000001
  Total charge density on r-space grids:       -0.0000000001
  Total charge density g-space grids:          -0.0000000001

  Overlap energy of the core charge distribution:               0.00000836868231
  Self energy of the core charge distribution:               -560.07033292413882
  Core Hamiltonian energy:                                    172.47487029517544
  Hartree energy:                                             221.70852963595661
  Exchange-correlation energy:                                -72.04535430515467
  Dispersion energy:                                           -0.03772957574913
  Electronic entropic energy:                                  -0.00353174965673
  Fermi energy:                                                -0.18327764642515

  Total energy:                                              -237.97354025540986

  outer SCF iter =    1 RMS gradient =   0.26E-06 energy =       -237.9735402554
  outer SCF loop converged in   1 iterations or   55 steps


 *** WARNING in qs_loc_utils.F:1500 :: User requested the calculation of ***
 *** the localized wavefunction but the section LOCALIZE was not         ***
 *** specified. Localization will not be performed!                      ***


 -------------------------------------------------------------------------------
 -                                                                             -
 -  BSSE CALCULATION         FRAGMENT CONF: 01        FRAGMENT SUBCONF: 01     -
 -                           CHARGE =     0           MULTIPLICITY =     0     -
 -                                                                             -
 -                 ATOM INDEX                              ATOM NAME           -
 -                 ----------                              ---------           -
 -                     43                                   Na                 -
 -------------------------------------------------------------------------------

 *******************************************************************************
 *******************************************************************************
 **                                                                           **
 **     #####                         ##              ##                      **
 **    ##   ##            ##          ##              ##                      **
 **   ##     ##                       ##            ######                    **
 **   ##     ##  ##   ##  ##   #####  ##  ##   ####   ##    #####    #####    **
 **   ##     ##  ##   ##  ##  ##      ## ##   ##      ##   ##   ##  ##   ##   **
 **   ##  ## ##  ##   ##  ##  ##      ####     ###    ##   ######   ######    **
 **    ##  ###   ##   ##  ##  ##      ## ##      ##   ##   ##       ##        **
 **     #######   #####   ##   #####  ##  ##  ####    ##    #####   ##        **
 **           ##                                                    ##        **
 **                                                                           **
 **                                                ... make the atoms dance   **
 **                                                                           **
 **            Copyright (C) by CP2K developers group (2000-2022)             **
 **                      J. Chem. Phys. 152, 194103 (2020)                    **
 **                                                                           **
 *******************************************************************************

 *** WARNING in qs_environment.F:1486 :: More added MOs requested than     ***
 *** available. The full set of unoccupied MOs will be used. Use           ***
 *** 'ADDED_MOS -1' to always use all available MOs and to get rid of this ***
 *** warning.                                                              ***



 TOTAL NUMBERS AND MAXIMUM NUMBERS

  Total number of            - Atomic kinds:                                   1
                             - Atoms:                                          1
                             - Shell sets:                                     1
                             - Shells:                                         5
                             - Primitive Cartesian functions:                  7
                             - Cartesian basis functions:                      9
                             - Spherical basis functions:                      9

  Maximum angular momentum of- Orbital basis functions:                        1
                             - Local part of the GTH pseudopotential:          2
                             - Non-local part of the GTH pseudopotential:      1


 SCF PARAMETERS         Density guess:                                    ATOMIC
                        --------------------------------------------------------
                        max_scf:                                             100
                        max_scf_history:                                       0
                        max_diis:                                              4
                        --------------------------------------------------------
                        eps_scf:                                        3.00E-07
                        eps_scf_history:                                0.00E+00
                        eps_diis:                                       1.00E-01
                        eps_eigval:                                     1.00E-05
                        --------------------------------------------------------
                        level_shift [a.u.]:                             0.000000
                        added MOs                                         4    0
                        --------------------------------------------------------
                        Mixing method:                            BROYDEN_MIXING
                                                charge density mixing in g-space
                        --------------------------------------------------------
                        Smear method:                                FERMI_DIRAC
                        Electronic temperature [K]:                        300.0
                        Electronic temperature [a.u.]:                  9.50E-04
                        Accuracy threshold:                             1.00E-10
                        --------------------------------------------------------
                        Outer loop SCF in use 
                        No variables optimised in outer loop
                        eps_scf                                         1.00E-06
                        max_scf                                              150
                        DIIS optimization
                        DIIS buffer length                                     3
                        step_size                                       5.00E-01

 Number of electrons:                                                          9
 Number of occupied orbitals:                                                  5
 Number of molecular orbitals:                                                 9

 Number of orbital functions:                                                  9
 Number of independent orbital functions:                                      9

 Extrapolation method: initial_guess


 SCF WAVEFUNCTION OPTIMIZATION

  Step     Update method      Time    Convergence         Total energy    Change
  ------------------------------------------------------------------------------
     1 NoMix/Diag. 0.10E+00    1.9     0.02107235       -47.1558961506 -4.72E+01
     2 Broy./Diag. 0.10E+00    3.7     0.00009241       -47.1150839402  4.08E-02
     3 Broy./Diag. 0.10E+00    4.0     0.00095519       -47.1545394484 -3.95E-02
     4 Broy./Diag. 0.10E+00    4.1     0.00002436       -47.1619042943 -7.36E-03
     5 Broy./Diag. 0.10E+00    4.1     0.00026176       -47.1618003963  1.04E-04
     6 Broy./Diag. 0.10E+00    4.2     0.00000923       -47.1618392536 -3.89E-05
     7 Broy./Diag. 0.10E+00    4.3     0.00015113       -47.1600184662  1.82E-03
     8 Broy./Diag. 0.10E+00    4.5     0.00001839       -47.1590043865  1.01E-03
     9 Broy./Diag. 0.10E+00    4.6     0.00019205       -47.1583880393  6.16E-04
    10 Broy./Diag. 0.10E+00    4.8     0.00000966       -47.1580152442  3.73E-04
    11 Broy./Diag. 0.10E+00    5.0     0.00009446       -47.1578261883  1.89E-04
    12 Broy./Diag. 0.10E+00    5.2     0.00000222       -47.1577743172  5.19E-05
    13 Broy./Diag. 0.10E+00    5.4     0.00000491       -47.1578554196 -8.11E-05
    14 Broy./Diag. 0.10E+00    5.7     0.00000072       -47.1578810755 -2.57E-05
    15 Broy./Diag. 0.10E+00    6.0     0.00001374       -47.1578086393  7.24E-05
    16 Broy./Diag. 0.10E+00    6.3     0.00000089       -47.1577917329  1.69E-05
    17 Broy./Diag. 0.10E+00    6.6     0.00000666       -47.1577583878  3.33E-05
    18 Broy./Diag. 0.10E+00    6.6     0.00000015       -47.1577403092  1.81E-05

  *** SCF run converged in    18 steps ***


  Electronic density on regular grids:         -9.0000017906       -0.0000017906
  Core density on regular grids:                9.0000000000       -0.0000000000
  Total charge density on r-space grids:       -0.0000017906
  Total charge density g-space grids:          -0.0000017906

  Overlap energy of the core charge distribution:               0.00000000000000
  Self energy of the core charge distribution:                -96.60649019442629
  Core Hamiltonian energy:                                     29.76012118019549
  Hartree energy:                                              26.73625968744641
  Exchange-correlation energy:                                 -7.04630510641245
  Dispersion energy:                                           -0.00000883455364
  Electronic entropic energy:                                  -0.00131704147593
  Fermi energy:                                                -0.09163785863806

  Total energy:                                               -47.15774030922640

  outer SCF iter =    1 RMS gradient =   0.15E-06 energy =        -47.1577403092
  outer SCF loop converged in   1 iterations or   18 steps


 *** WARNING in qs_loc_utils.F:1500 :: User requested the calculation of ***
 *** the localized wavefunction but the section LOCALIZE was not         ***
 *** specified. Localization will not be performed!                      ***


 -------------------------------------------------------------------------------
 -                                                                             -
 -  BSSE CALCULATION         FRAGMENT CONF: 11        FRAGMENT SUBCONF: 10     -
 -                           CHARGE =     0           MULTIPLICITY =     0     -
 -                                                                             -
 -                 ATOM INDEX                              ATOM NAME           -
 -                 ----------                              ---------           -
 -                      1                                   C                  -
 -                      2                                   C                  -
 -                      3                                   C                  -
 -                      4                                   C                  -
 -                      5                                   C                  -
 -                      6                                   C                  -
 -                      7                                   C                  -
 -                      8                                   C                  -
 -                      9                                   C                  -
 -                     10                                   C                  -
 -                     11                                   C                  -
 -                     12                                   C                  -
 -                     13                                   C                  -
 -                     14                                   C                  -
 -                     15                                   C                  -
 -                     16                                   C                  -
 -                     17                                   C                  -
 -                     18                                   C                  -
 -                     19                                   C                  -
 -                     20                                   C                  -
 -                     21                                   C                  -
 -                     22                                   C                  -
 -                     23                                   C                  -
 -                     24                                   C                  -
 -                     25                                   C                  -
 -                     26                                   C                  -
 -                     27                                   C                  -
 -                     28                                   C                  -
 -                     29                                   C                  -
 -                     30                                   C                  -
 -                     31                                   C                  -
 -                     32                                   C                  -
 -                     33                                   C                  -
 -                     34                                   C                  -
 -                     35                                   C                  -
 -                     36                                   C                  -
 -                     37                                   C                  -
 -                     38                                   C                  -
 -                     39                                   C                  -
 -                     40                                   C                  -
 -                     41                                   C                  -
 -                     42                                   C                  -
 -                     43                                   Na_ghost           -
 -------------------------------------------------------------------------------

 *******************************************************************************
 *******************************************************************************
 **                                                                           **
 **     #####                         ##              ##                      **
 **    ##   ##            ##          ##              ##                      **
 **   ##     ##                       ##            ######                    **
 **   ##     ##  ##   ##  ##   #####  ##  ##   ####   ##    #####    #####    **
 **   ##     ##  ##   ##  ##  ##      ## ##   ##      ##   ##   ##  ##   ##   **
 **   ##  ## ##  ##   ##  ##  ##      ####     ###    ##   ######   ######    **
 **    ##  ###   ##   ##  ##  ##      ## ##      ##   ##   ##       ##        **
 **     #######   #####   ##   #####  ##  ##  ####    ##    #####   ##        **
 **           ##                                                    ##        **
 **                                                                           **
 **                                                ... make the atoms dance   **
 **                                                                           **
 **            Copyright (C) by CP2K developers group (2000-2022)             **
 **                      J. Chem. Phys. 152, 194103 (2020)                    **
 **                                                                           **
 *******************************************************************************


 TOTAL NUMBERS AND MAXIMUM NUMBERS

  Total number of            - Atomic kinds:                                   2
                             - Atoms:                                         43
                             - Shell sets:                                    43
                             - Shells:                                       215
                             - Primitive Cartesian functions:                217
                             - Cartesian basis functions:                    597
                             - Spherical basis functions:                    555

  Maximum angular momentum of- Orbital basis functions:                        2
                             - Local part of the GTH pseudopotential:          2
                             - Non-local part of the GTH pseudopotential:      0


 SCF PARAMETERS         Density guess:                                    ATOMIC
                        --------------------------------------------------------
                        max_scf:                                             100
                        max_scf_history:                                       0
                        max_diis:                                              4
                        --------------------------------------------------------
                        eps_scf:                                        3.00E-07
                        eps_scf_history:                                0.00E+00
                        eps_diis:                                       1.00E-01
                        eps_eigval:                                     1.00E-05
                        --------------------------------------------------------
                        level_shift [a.u.]:                             0.000000
                        added MOs                                       100    0
                        --------------------------------------------------------
                        Mixing method:                            BROYDEN_MIXING
                                                charge density mixing in g-space
                        --------------------------------------------------------
                        Smear method:                                FERMI_DIRAC
                        Electronic temperature [K]:                        300.0
                        Electronic temperature [a.u.]:                  9.50E-04
                        Accuracy threshold:                             1.00E-10
                        --------------------------------------------------------
                        Outer loop SCF in use 
                        No variables optimised in outer loop
                        eps_scf                                         1.00E-06
                        max_scf                                              150
                        DIIS optimization
                        DIIS buffer length                                     3
                        step_size                                       5.00E-01

 Number of electrons:                                                        168
 Number of occupied orbitals:                                                 84
 Number of molecular orbitals:                                               184

 Number of orbital functions:                                                555
 Number of independent orbital functions:                                    555

 Extrapolation method: initial_guess


 SCF WAVEFUNCTION OPTIMIZATION

  Step     Update method      Time    Convergence         Total energy    Change
  ------------------------------------------------------------------------------
     1 NoMix/Diag. 0.10E+00    2.2     0.92722000      -236.0468780821 -2.36E+02
     2 Broy./Diag. 0.10E+00    4.2     0.02361212      -229.6144174039  6.43E+00
     3 Broy./Diag. 0.10E+00    4.4     0.12204163      -234.0709120224 -4.46E+00
     4 Broy./Diag. 0.10E+00    4.4     0.01915694      -236.6827611572 -2.61E+00
     5 Broy./Diag. 0.10E+00    4.5     0.04892208      -237.3416274089 -6.59E-01
     6 Broy./Diag. 0.10E+00    4.6     0.01139785      -237.6008693880 -2.59E-01
     7 Broy./Diag. 0.10E+00    4.7     0.02507329      -237.6958834893 -9.50E-02
     8 Broy./Diag. 0.10E+00    4.9     0.01054839      -237.7729368297 -7.71E-02
     9 Broy./Diag. 0.10E+00    5.0     0.00657024      -237.8065453345 -3.36E-02
    10 Broy./Diag. 0.10E+00    5.2     0.00781586      -237.8368337194 -3.03E-02
    11 Broy./Diag. 0.10E+00    5.4     0.01161223      -237.8733594203 -3.65E-02
    12 Broy./Diag. 0.10E+00    5.6     0.00704409      -237.8834005366 -1.00E-02
    13 Broy./Diag. 0.10E+00    5.8     0.00242604      -237.9003520905 -1.70E-02
    14 Broy./Diag. 0.10E+00    6.1     0.00270151      -237.9153134985 -1.50E-02
    15 Broy./Diag. 0.10E+00    6.4     0.00064246      -237.9347239341 -1.94E-02
    16 Broy./Diag. 0.10E+00    6.7     0.00215917      -237.9472306745 -1.25E-02
    17 Broy./Diag. 0.10E+00    7.0     0.00104199      -237.9565979297 -9.37E-03
    18 Broy./Diag. 0.10E+00    7.0     0.00115509      -237.9624341029 -5.84E-03
    19 Broy./Diag. 0.10E+00    6.9     0.00044621      -237.9647086494 -2.27E-03
    20 Broy./Diag. 0.10E+00    7.0     0.00030872      -237.9654570565 -7.48E-04
    21 Broy./Diag. 0.10E+00    7.0     0.00063448      -237.9655934927 -1.36E-04
    22 Broy./Diag. 0.10E+00    7.0     0.00039219      -237.9645061830  1.09E-03
    23 Broy./Diag. 0.10E+00    7.0     0.00015273      -237.9649274627 -4.21E-04
    24 Broy./Diag. 0.10E+00    7.0     0.00018450      -237.9669910431 -2.06E-03
    25 Broy./Diag. 0.10E+00    6.9     0.00013194      -237.9703320274 -3.34E-03
    26 Broy./Diag. 0.10E+00    7.0     0.00010837      -237.9729504922 -2.62E-03
    27 Broy./Diag. 0.10E+00    7.0     0.00010075      -237.9749217497 -1.97E-03
    28 Broy./Diag. 0.10E+00    7.0     0.00008721      -237.9759743105 -1.05E-03
    29 Broy./Diag. 0.10E+00    7.0     0.00005276      -237.9762348922 -2.61E-04
    30 Broy./Diag. 0.10E+00    7.0     0.00007434      -237.9762110950  2.38E-05
    31 Broy./Diag. 0.10E+00    7.0     0.00004141      -237.9760742760  1.37E-04
    32 Broy./Diag. 0.10E+00    7.0     0.00003086      -237.9760185081  5.58E-05
    33 Broy./Diag. 0.10E+00    7.0     0.00002571      -237.9760591692 -4.07E-05
    34 Broy./Diag. 0.10E+00    7.0     0.00001754      -237.9761858607 -1.27E-04
    35 Broy./Diag. 0.10E+00    7.0     0.00001703      -237.9762512808 -6.54E-05
    36 Broy./Diag. 0.10E+00    7.0     0.00000990      -237.9762618564 -1.06E-05
    37 Broy./Diag. 0.10E+00    7.0     0.00001732      -237.9763000436 -3.82E-05
    38 Broy./Diag. 0.10E+00    7.0     0.00000682      -237.9763539490 -5.39E-05
    39 Broy./Diag. 0.10E+00    7.0     0.00001221      -237.9764535366 -9.96E-05
    40 Broy./Diag. 0.10E+00    7.0     0.00000316      -237.9765504272 -9.69E-05
    41 Broy./Diag. 0.10E+00    7.0     0.00000622      -237.9766072839 -5.69E-05
    42 Broy./Diag. 0.10E+00    7.0     0.00000416      -237.9766381488 -3.09E-05
    43 Broy./Diag. 0.10E+00    7.0     0.00000375      -237.9766480181 -9.87E-06
    44 Broy./Diag. 0.10E+00    7.0     0.00000295      -237.9766431459  4.87E-06
    45 Broy./Diag. 0.10E+00    7.0     0.00000199      -237.9766306379  1.25E-05
    46 Broy./Diag. 0.10E+00    7.0     0.00000266      -237.9766158598  1.48E-05
    47 Broy./Diag. 0.10E+00    7.0     0.00000127      -237.9766007590  1.51E-05
    48 Broy./Diag. 0.10E+00    7.0     0.00000090      -237.9765925781  8.18E-06
    49 Broy./Diag. 0.10E+00    7.0     0.00000135      -237.9765960919 -3.51E-06
    50 Broy./Diag. 0.10E+00    7.0     0.00000055      -237.9766036338 -7.54E-06
    51 Broy./Diag. 0.10E+00    7.0     0.00000116      -237.9766160921 -1.25E-05
    52 Broy./Diag. 0.10E+00    7.0     0.00000052      -237.9766252004 -9.11E-06
    53 Broy./Diag. 0.10E+00    7.0     0.00000040      -237.9766289421 -3.74E-06
    54 Broy./Diag. 0.10E+00    7.0     0.00000029      -237.9766284557  4.86E-07

  *** SCF run converged in    54 steps ***


  Electronic density on regular grids:       -168.0000000000        0.0000000000
  Core density on regular grids:              167.9999999999       -0.0000000001
  Total charge density on r-space grids:       -0.0000000001
  Total charge density g-space grids:          -0.0000000001

  Overlap energy of the core charge distribution:               0.00000836868231
  Self energy of the core charge distribution:               -560.07033292413882
  Core Hamiltonian energy:                                    172.45108412749460
  Hartree energy:                                             221.72074742572707
  Exchange-correlation energy:                                -72.03688186770263
  Dispersion energy:                                           -0.03772957574913
  Electronic entropic energy:                                  -0.00352401073211
  Fermi energy:                                                -0.18411877900498

  Total energy:                                              -237.97662845566435

  outer SCF iter =    1 RMS gradient =   0.29E-06 energy =       -237.9766284557
  outer SCF loop converged in   1 iterations or   54 steps


 *** WARNING in qs_loc_utils.F:1500 :: User requested the calculation of ***
 *** the localized wavefunction but the section LOCALIZE was not         ***
 *** specified. Localization will not be performed!                      ***


 -------------------------------------------------------------------------------
 -                                                                             -
 -  BSSE CALCULATION         FRAGMENT CONF: 11        FRAGMENT SUBCONF: 01     -
 -                           CHARGE =     0           MULTIPLICITY =     0     -
 -                                                                             -
 -                 ATOM INDEX                              ATOM NAME           -
 -                 ----------                              ---------           -
 -                      1                                   C_ghost            -
 -                      2                                   C_ghost            -
 -                      3                                   C_ghost            -
 -                      4                                   C_ghost            -
 -                      5                                   C_ghost            -
 -                      6                                   C_ghost            -
 -                      7                                   C_ghost            -
 -                      8                                   C_ghost            -
 -                      9                                   C_ghost            -
 -                     10                                   C_ghost            -
 -                     11                                   C_ghost            -
 -                     12                                   C_ghost            -
 -                     13                                   C_ghost            -
 -                     14                                   C_ghost            -
 -                     15                                   C_ghost            -
 -                     16                                   C_ghost            -
 -                     17                                   C_ghost            -
 -                     18                                   C_ghost            -
 -                     19                                   C_ghost            -
 -                     20                                   C_ghost            -
 -                     21                                   C_ghost            -
 -                     22                                   C_ghost            -
 -                     23                                   C_ghost            -
 -                     24                                   C_ghost            -
 -                     25                                   C_ghost            -
 -                     26                                   C_ghost            -
 -                     27                                   C_ghost            -
 -                     28                                   C_ghost            -
 -                     29                                   C_ghost            -
 -                     30                                   C_ghost            -
 -                     31                                   C_ghost            -
 -                     32                                   C_ghost            -
 -                     33                                   C_ghost            -
 -                     34                                   C_ghost            -
 -                     35                                   C_ghost            -
 -                     36                                   C_ghost            -
 -                     37                                   C_ghost            -
 -                     38                                   C_ghost            -
 -                     39                                   C_ghost            -
 -                     40                                   C_ghost            -
 -                     41                                   C_ghost            -
 -                     42                                   C_ghost            -
 -                     43                                   Na                 -
 -------------------------------------------------------------------------------

 *******************************************************************************
 *******************************************************************************
 **                                                                           **
 **     #####                         ##              ##                      **
 **    ##   ##            ##          ##              ##                      **
 **   ##     ##                       ##            ######                    **
 **   ##     ##  ##   ##  ##   #####  ##  ##   ####   ##    #####    #####    **
 **   ##     ##  ##   ##  ##  ##      ## ##   ##      ##   ##   ##  ##   ##   **
 **   ##  ## ##  ##   ##  ##  ##      ####     ###    ##   ######   ######    **
 **    ##  ###   ##   ##  ##  ##      ## ##      ##   ##   ##       ##        **
 **     #######   #####   ##   #####  ##  ##  ####    ##    #####   ##        **
 **           ##                                                    ##        **
 **                                                                           **
 **                                                ... make the atoms dance   **
 **                                                                           **
 **            Copyright (C) by CP2K developers group (2000-2022)             **
 **                      J. Chem. Phys. 152, 194103 (2020)                    **
 **                                                                           **
 *******************************************************************************


 TOTAL NUMBERS AND MAXIMUM NUMBERS

  Total number of            - Atomic kinds:                                   2
                             - Atoms:                                         43
                             - Shell sets:                                    43
                             - Shells:                                       215
                             - Primitive Cartesian functions:                217
                             - Cartesian basis functions:                    597
                             - Spherical basis functions:                    555

  Maximum angular momentum of- Orbital basis functions:                        2
                             - Local part of the GTH pseudopotential:          2
                             - Non-local part of the GTH pseudopotential:      1


 SCF PARAMETERS         Density guess:                                    ATOMIC
                        --------------------------------------------------------
                        max_scf:                                             100
                        max_scf_history:                                       0
                        max_diis:                                              4
                        --------------------------------------------------------
                        eps_scf:                                        3.00E-07
                        eps_scf_history:                                0.00E+00
                        eps_diis:                                       1.00E-01
                        eps_eigval:                                     1.00E-05
                        --------------------------------------------------------
                        level_shift [a.u.]:                             0.000000
                        added MOs                                       100    0
                        --------------------------------------------------------
                        Mixing method:                            BROYDEN_MIXING
                                                charge density mixing in g-space
                        --------------------------------------------------------
                        Smear method:                                FERMI_DIRAC
                        Electronic temperature [K]:                        300.0
                        Electronic temperature [a.u.]:                  9.50E-04
                        Accuracy threshold:                             1.00E-10
                        --------------------------------------------------------
                        Outer loop SCF in use 
                        No variables optimised in outer loop
                        eps_scf                                         1.00E-06
                        max_scf                                              150
                        DIIS optimization
                        DIIS buffer length                                     3
                        step_size                                       5.00E-01

 Number of electrons:                                                          9
 Number of occupied orbitals:                                                  5
 Number of molecular orbitals:                                               105

 Number of orbital functions:                                                555
 Number of independent orbital functions:                                    555

 Extrapolation method: initial_guess


 SCF WAVEFUNCTION OPTIMIZATION

  Step     Update method      Time    Convergence         Total energy    Change
  ------------------------------------------------------------------------------
     1 NoMix/Diag. 0.10E+00    2.2     0.02200768       -47.1558961506 -4.72E+01
     2 Broy./Diag. 0.10E+00    4.2     0.00013052       -47.1172189241  3.87E-02
     3 Broy./Diag. 0.10E+00    4.4     0.00133683       -47.1568281949 -3.96E-02
     4 Broy./Diag. 0.10E+00    4.5     0.00001762       -47.1650519071 -8.22E-03
     5 Broy./Diag. 0.10E+00    4.5     0.00018653       -47.1643921710  6.60E-04
     6 Broy./Diag. 0.10E+00    4.6     0.00001766       -47.1641256415  2.67E-04
     7 Broy./Diag. 0.10E+00    4.7     0.00028870       -47.1613227725  2.80E-03
     8 Broy./Diag. 0.10E+00    4.9     0.00002819       -47.1596231684  1.70E-03
     9 Broy./Diag. 0.10E+00    5.0     0.00026828       -47.1588325885  7.91E-04
    10 Broy./Diag. 0.10E+00    5.2     0.00001140       -47.1583770092  4.56E-04
    11 Broy./Diag. 0.10E+00    5.4     0.00014182       -47.1581234269  2.54E-04
    12 Broy./Diag. 0.10E+00    5.6     0.00000521       -47.1581212477  2.18E-06
    13 Broy./Diag. 0.10E+00    5.8     0.00005645       -47.1582358334 -1.15E-04
    14 Broy./Diag. 0.10E+00    6.1     0.00000306       -47.1582956433 -5.98E-05
    15 Broy./Diag. 0.10E+00    6.4     0.00004530       -47.1581751263  1.21E-04
    16 Broy./Diag. 0.10E+00    6.7     0.00000481       -47.1581586546  1.65E-05
    17 Broy./Diag. 0.10E+00    7.0     0.00005017       -47.1581230336  3.56E-05
    18 Broy./Diag. 0.10E+00    7.0     0.00000177       -47.1580985002  2.45E-05
    19 Broy./Diag. 0.10E+00    6.9     0.00001759       -47.1580878427  1.07E-05
    20 Broy./Diag. 0.10E+00    7.0     0.00000078       -47.1580855568  2.29E-06
    21 Broy./Diag. 0.10E+00    7.0     0.00000765       -47.1580919833 -6.43E-06
    22 Broy./Diag. 0.10E+00    7.0     0.00000031       -47.1580943388 -2.36E-06
    23 Broy./Diag. 0.10E+00    7.0     0.00000210       -47.1580873225  7.02E-06
    24 Broy./Diag. 0.10E+00    7.0     0.00000024       -47.1580869465  3.76E-07

  *** SCF run converged in    24 steps ***


  Electronic density on regular grids:         -9.0000017907       -0.0000017907
  Core density on regular grids:                9.0000000000       -0.0000000000
  Total charge density on r-space grids:       -0.0000017907
  Total charge density g-space grids:          -0.0000017907

  Overlap energy of the core charge distribution:               0.00000000000000
  Self energy of the core charge distribution:                -96.60649019442629
  Core Hamiltonian energy:                                     29.75800752189744
  Hartree energy:                                              26.73683920512524
  Exchange-correlation energy:                                 -7.04511760303200
  Dispersion energy:                                           -0.00000883455364
  Electronic entropic energy:                                  -0.00131704147593
  Fermi energy:                                                -0.09285423844771

  Total energy:                                               -47.15808694646518

  outer SCF iter =    1 RMS gradient =   0.24E-06 energy =        -47.1580869465
  outer SCF loop converged in   1 iterations or   24 steps


 *** WARNING in qs_loc_utils.F:1500 :: User requested the calculation of ***
 *** the localized wavefunction but the section LOCALIZE was not         ***
 *** specified. Localization will not be performed!                      ***


 -------------------------------------------------------------------------------
 -                                                                             -
 -  BSSE CALCULATION         FRAGMENT CONF: 11        FRAGMENT SUBCONF: 11     -
 -                           CHARGE =     0           MULTIPLICITY =     0     -
 -                                                                             -
 -                 ATOM INDEX                              ATOM NAME           -
 -                 ----------                              ---------           -
 -                      1                                   C                  -
 -                      2                                   C                  -
 -                      3                                   C                  -
 -                      4                                   C                  -
 -                      5                                   C                  -
 -                      6                                   C                  -
 -                      7                                   C                  -
 -                      8                                   C                  -
 -                      9                                   C                  -
 -                     10                                   C                  -
 -                     11                                   C                  -
 -                     12                                   C                  -
 -                     13                                   C                  -
 -                     14                                   C                  -
 -                     15                                   C                  -
 -                     16                                   C                  -
 -                     17                                   C                  -
 -                     18                                   C                  -
 -                     19                                   C                  -
 -                     20                                   C                  -
 -                     21                                   C                  -
 -                     22                                   C                  -
 -                     23                                   C                  -
 -                     24                                   C                  -
 -                     25                                   C                  -
 -                     26                                   C                  -
 -                     27                                   C                  -
 -                     28                                   C                  -
 -                     29                                   C                  -
 -                     30                                   C                  -
 -                     31                                   C                  -
 -                     32                                   C                  -
 -                     33                                   C                  -
 -                     34                                   C                  -
 -                     35                                   C                  -
 -                     36                                   C                  -
 -                     37                                   C                  -
 -                     38                                   C                  -
 -                     39                                   C                  -
 -                     40                                   C                  -
 -                     41                                   C                  -
 -                     42                                   C                  -
 -                     43                                   Na                 -
 -------------------------------------------------------------------------------

 *******************************************************************************
 *******************************************************************************
 **                                                                           **
 **     #####                         ##              ##                      **
 **    ##   ##            ##          ##              ##                      **
 **   ##     ##                       ##            ######                    **
 **   ##     ##  ##   ##  ##   #####  ##  ##   ####   ##    #####    #####    **
 **   ##     ##  ##   ##  ##  ##      ## ##   ##      ##   ##   ##  ##   ##   **
 **   ##  ## ##  ##   ##  ##  ##      ####     ###    ##   ######   ######    **
 **    ##  ###   ##   ##  ##  ##      ## ##      ##   ##   ##       ##        **
 **     #######   #####   ##   #####  ##  ##  ####    ##    #####   ##        **
 **           ##                                                    ##        **
 **                                                                           **
 **                                                ... make the atoms dance   **
 **                                                                           **
 **            Copyright (C) by CP2K developers group (2000-2022)             **
 **                      J. Chem. Phys. 152, 194103 (2020)                    **
 **                                                                           **
 *******************************************************************************


 TOTAL NUMBERS AND MAXIMUM NUMBERS

  Total number of            - Atomic kinds:                                   2
                             - Atoms:                                         43
                             - Shell sets:                                    43
                             - Shells:                                       215
                             - Primitive Cartesian functions:                217
                             - Cartesian basis functions:                    597
                             - Spherical basis functions:                    555

  Maximum angular momentum of- Orbital basis functions:                        2
                             - Local part of the GTH pseudopotential:          2
                             - Non-local part of the GTH pseudopotential:      1


 SCF PARAMETERS         Density guess:                                    ATOMIC
                        --------------------------------------------------------
                        max_scf:                                             100
                        max_scf_history:                                       0
                        max_diis:                                              4
                        --------------------------------------------------------
                        eps_scf:                                        3.00E-07
                        eps_scf_history:                                0.00E+00
                        eps_diis:                                       1.00E-01
                        eps_eigval:                                     1.00E-05
                        --------------------------------------------------------
                        level_shift [a.u.]:                             0.000000
                        added MOs                                       100    0
                        --------------------------------------------------------
                        Mixing method:                            BROYDEN_MIXING
                                                charge density mixing in g-space
                        --------------------------------------------------------
                        Smear method:                                FERMI_DIRAC
                        Electronic temperature [K]:                        300.0
                        Electronic temperature [a.u.]:                  9.50E-04
                        Accuracy threshold:                             1.00E-10
                        --------------------------------------------------------
                        Outer loop SCF in use 
                        No variables optimised in outer loop
                        eps_scf                                         1.00E-06
                        max_scf                                              150
                        DIIS optimization
                        DIIS buffer length                                     3
                        step_size                                       5.00E-01

 Number of electrons:                                                        177
 Number of occupied orbitals:                                                 89
 Number of molecular orbitals:                                               189

 Number of orbital functions:                                                555
 Number of independent orbital functions:                                    555

 Extrapolation method: initial_guess


 SCF WAVEFUNCTION OPTIMIZATION

  Step     Update method      Time    Convergence         Total energy    Change
  ------------------------------------------------------------------------------
     1 NoMix/Diag. 0.10E+00    2.2     0.98503865      -283.2772598706 -2.83E+02
     2 Broy./Diag. 0.10E+00    4.2     0.02571820      -275.9853752085  7.29E+00
     3 Broy./Diag. 0.10E+00    4.4     0.26053616      -280.8120241829 -4.83E+00
     4 Broy./Diag. 0.10E+00    4.4     0.03413053      -283.2680452825 -2.46E+00
     5 Broy./Diag. 0.10E+00    4.5     0.17565518      -284.0318445469 -7.64E-01
     6 Broy./Diag. 0.10E+00    4.6     0.09463200      -284.5323460217 -5.01E-01
     7 Broy./Diag. 0.10E+00    4.7     0.05930881      -284.6351811037 -1.03E-01
     8 Broy./Diag. 0.10E+00    4.9     0.01247079      -284.7630285230 -1.28E-01
     9 Broy./Diag. 0.10E+00    5.0     0.01439203      -284.7959298779 -3.29E-02
    10 Broy./Diag. 0.10E+00    5.2     0.01552525      -284.8721067684 -7.62E-02
    11 Broy./Diag. 0.10E+00    5.4     0.00335517      -284.9779638884 -1.06E-01
    12 Broy./Diag. 0.10E+00    5.6     0.01218242      -285.0386495479 -6.07E-02
    13 Broy./Diag. 0.10E+00    5.8     0.01197078      -285.1119136124 -7.33E-02
    14 Broy./Diag. 0.10E+00    6.1     0.00963607      -285.1827581908 -7.08E-02
    15 Broy./Diag. 0.10E+00    6.4     0.01283957      -285.2325559321 -4.98E-02
    16 Broy./Diag. 0.10E+00    6.7     0.00524181      -285.2556716865 -2.31E-02
    17 Broy./Diag. 0.10E+00    7.0     0.00509043      -285.2472656643  8.41E-03
    18 Broy./Diag. 0.10E+00    7.0     0.00470684      -285.2351834837  1.21E-02
    19 Broy./Diag. 0.10E+00    6.9     0.00207289      -285.2265392751  8.64E-03
    20 Broy./Diag. 0.10E+00    7.0     0.00235551      -285.2086521309  1.79E-02
    21 Broy./Diag. 0.10E+00    7.0     0.00196221      -285.2027438236  5.91E-03
    22 Broy./Diag. 0.10E+00    7.0     0.00081186      -285.2031734686 -4.30E-04
    23 Broy./Diag. 0.10E+00    7.0     0.00119328      -285.2023787140  7.95E-04
    24 Broy./Diag. 0.10E+00    7.0     0.00041883      -285.1976636269  4.72E-03
    25 Broy./Diag. 0.10E+00    6.9     0.00039213      -285.1956206373  2.04E-03
    26 Broy./Diag. 0.10E+00    7.0     0.00030825      -285.2085681830 -1.29E-02
    27 Broy./Diag. 0.10E+00    7.0     0.00016402      -285.2160340293 -7.47E-03
    28 Broy./Diag. 0.10E+00    7.0     0.00025612      -285.2154861662  5.48E-04
    29 Broy./Diag. 0.10E+00    7.0     0.00006873      -285.2120428952  3.44E-03
    30 Broy./Diag. 0.10E+00    7.0     0.00018687      -285.2088674909  3.18E-03
    31 Broy./Diag. 0.10E+00    6.9     0.00010067      -285.2097919925 -9.25E-04
    32 Broy./Diag. 0.10E+00    7.0     0.00023919      -285.2104943890 -7.02E-04
    33 Broy./Diag. 0.10E+00    7.0     0.00008403      -285.2126768101 -2.18E-03
    34 Broy./Diag. 0.10E+00    7.0     0.00008852      -285.2135452554 -8.68E-04
    35 Broy./Diag. 0.10E+00    7.0     0.00008939      -285.2140729905 -5.28E-04
    36 Broy./Diag. 0.10E+00    7.0     0.00004678      -285.2141931711 -1.20E-04
    37 Broy./Diag. 0.10E+00    6.9     0.00007590      -285.2141235029  6.97E-05
    38 Broy./Diag. 0.10E+00    7.0     0.00001960      -285.2141126832  1.08E-05
    39 Broy./Diag. 0.10E+00    7.0     0.00003851      -285.2141594395 -4.68E-05
    40 Broy./Diag. 0.10E+00    7.0     0.00002947      -285.2143571109 -1.98E-04
    41 Broy./Diag. 0.10E+00    7.0     0.00003082      -285.2145069479 -1.50E-04
    42 Broy./Diag. 0.10E+00    7.0     0.00001690      -285.2145558047 -4.89E-05
    43 Broy./Diag. 0.10E+00    7.0     0.00001407      -285.2144957187  6.01E-05
    44 Broy./Diag. 0.10E+00    7.0     0.00000755      -285.2144186462  7.71E-05
    45 Broy./Diag. 0.10E+00    7.0     0.00001159      -285.2142894773  1.29E-04
    46 Broy./Diag. 0.10E+00    7.0     0.00000351      -285.2142233551  6.61E-05
    47 Broy./Diag. 0.10E+00    7.0     0.00000521      -285.2141969445  2.64E-05
    48 Broy./Diag. 0.10E+00    7.0     0.00000552      -285.2142068736 -9.93E-06
    49 Broy./Diag. 0.10E+00    7.0     0.00000328      -285.2142287789 -2.19E-05
    50 Broy./Diag. 0.10E+00    7.0     0.00000502      -285.2142633148 -3.45E-05
    51 Broy./Diag. 0.10E+00    7.0     0.00000240      -285.2142900551 -2.67E-05
    52 Broy./Diag. 0.10E+00    7.0     0.00000253      -285.2143013713 -1.13E-05
    53 Broy./Diag. 0.10E+00    7.0     0.00000187      -285.2143152556 -1.39E-05
    54 Broy./Diag. 0.10E+00    7.0     0.00000146      -285.2143139197  1.34E-06
    55 Broy./Diag. 0.10E+00    7.0     0.00000150      -285.2143143977 -4.78E-07
    56 Broy./Diag. 0.10E+00    7.0     0.00000066      -285.2143117378  2.66E-06
    57 Broy./Diag. 0.10E+00    7.0     0.00000118      -285.2143066885  5.05E-06
    58 Broy./Diag. 0.10E+00    7.0     0.00000093      -285.2142996847  7.00E-06
    59 Broy./Diag. 0.10E+00    7.0     0.00000053      -285.2142956459  4.04E-06
    60 Broy./Diag. 0.10E+00    7.0     0.00000068      -285.2142929112  2.73E-06
    61 Broy./Diag. 0.10E+00    7.0     0.00000061      -285.2142919610  9.50E-07
    62 Broy./Diag. 0.10E+00    7.0     0.00000036      -285.2142926698 -7.09E-07
    63 Broy./Diag. 0.10E+00    7.0     0.00000047      -285.2142936801 -1.01E-06
    64 Broy./Diag. 0.10E+00    7.0     0.00000015      -285.2142942214 -5.41E-07

  *** SCF run converged in    64 steps ***


  Electronic density on regular grids:       -177.0000017904       -0.0000017904
  Core density on regular grids:              176.9999999999       -0.0000000001
  Total charge density on r-space grids:       -0.0000017906
  Total charge density g-space grids:          -0.0000017906

  Overlap energy of the core charge distribution:               0.00000836868231
  Self energy of the core charge distribution:               -656.67682311856515
  Core Hamiltonian energy:                                    202.49840360223055
  Hartree energy:                                             248.30789575639963
  Exchange-correlation energy:                                -79.29993021218533
  Dispersion energy:                                           -0.04052890273224
  Electronic entropic energy:                                  -0.00331971500067
  Fermi energy:                                                -0.15658101250219

  Total energy:                                              -285.21429422138203

  outer SCF iter =    1 RMS gradient =   0.15E-06 energy =       -285.2142942214
  outer SCF loop converged in   1 iterations or   64 steps


 *** WARNING in qs_loc_utils.F:1500 :: User requested the calculation of ***
 *** the localized wavefunction but the section LOCALIZE was not         ***
 *** specified. Localization will not be performed!                      ***


 -------------------------------------------------------------------------------
 -                                                                             -
 -                                 BSSE RESULTS                                -
 -                                                                             -
 -                 CP-corrected Total energy:     -285.210859                  -
 -                                                                             -
 -                       1-body contribution:     -237.973540                  -
 -                       1-body contribution:      -47.157740                  -
 -                                                                             -
 -                       2-body contribution:       -0.079579                  -
 -                 BSSE-free interaction energy:       -0.079579               -
 -------------------------------------------------------------------------------

 -------------------------------------------------------------------------------
 -                                                                             -
 -                                DBCSR STATISTICS                             -
 -                                                                             -
 -------------------------------------------------------------------------------
 COUNTER                                    TOTAL       BLAS       SMM       ACC
 flops     9 x     9 x     9                61236     100.0%      0.0%      0.0%
 flops     9 x     9 x    56               489888     100.0%      0.0%      0.0%
 flops     9 x     9 x    61               632448     100.0%      0.0%      0.0%
 flops     9 x    13 x     9              1061424     100.0%      0.0%      0.0%
 flops    13 x     9 x     9              1061424     100.0%      0.0%      0.0%
 flops     9 x     9 x    64              1223424     100.0%      0.0%      0.0%
 flops     9 x     9 x    32              1596672     100.0%      0.0%      0.0%
 flops     9 x    13 x    56             14859936     100.0%      0.0%      0.0%
 flops    13 x     9 x    56             14859936     100.0%      0.0%      0.0%
 flops     9 x    13 x    61             19184256     100.0%      0.0%      0.0%
 flops    13 x     9 x    61             19184256     100.0%      0.0%      0.0%
 flops     9 x    13 x    64             37110528     100.0%      0.0%      0.0%
 flops    13 x     9 x    64             37110528     100.0%      0.0%      0.0%
 flops     9 x    13 x    32             48432384     100.0%      0.0%      0.0%
 flops    13 x     9 x    32             48432384     100.0%      0.0%      0.0%
 flops    13 x    13 x     9             65926224     100.0%      0.0%      0.0%
 flops    13 x    13 x    61           1191555456     100.0%      0.0%      0.0%
 flops    13 x    13 x    56           1863026256     100.0%      0.0%      0.0%
 flops    13 x    13 x    64           3379329408     100.0%      0.0%      0.0%
 flops    13 x    13 x    32           4082542464     100.0%      0.0%      0.0%
 flops inhomo. stacks                           0       0.0%      0.0%      0.0%
 flops total                        10.827681E+09     100.0%      0.0%      0.0%
 flops max/rank                    773.462976E+06     100.0%      0.0%      0.0%
 matmuls inhomo. stacks                         0       0.0%      0.0%      0.0%
 matmuls total                             736006     100.0%      0.0%      0.0%
 number of processed stacks                 17170     100.0%      0.0%      0.0%
 average stack size                                    42.9       0.0       0.0
 marketing flops                     9.514464E+09
 -------------------------------------------------------------------------------
 # multiplications                            215
 max memory usage/rank               2.653348E+09
 # max total images/rank                        1
 # max 3D layers                                1
 # MPI messages exchanged                   20640
 MPI messages size (bytes):
  total size                       919.360256E+06
  min size                           0.000000E+00
  max size                          73.216000E+03
  average size                      44.542648E+03
 MPI breakdown and total messages size (bytes):
             size <=      128                1620                        0
       128 < size <=     8192                 108                    69984
      8192 < size <=    32768                 576                  5754240
     32768 < size <=   131072               18336                913536000
    131072 < size <=  4194304                   0                        0
   4194304 < size <= 16777216                   0                        0
  16777216 < size                               0                        0
 -------------------------------------------------------------------------------
 -                                                                             -
 -                      DBCSR MESSAGE PASSING PERFORMANCE                      -
 -                                                                             -
 -------------------------------------------------------------------------------
 ROUTINE             CALLS      AVE VOLUME [Bytes]
 MP_Bcast               21                     12.
 MP_Allreduce         1569                      9.
 MP_Alltoall          6080                  45562.
 MP_ISend             3440                  18537.
 MP_IRecv             3440                  14668.
 -------------------------------------------------------------------------------

 -------------------------------------------------------------------------------
 -                                                                             -
 -                                DBM STATISTICS                               -
 -                                                                             -
 -------------------------------------------------------------------------------
    M  x    N  x    K                                          COUNT     PERCENT
 -------------------------------------------------------------------------------

 -------------------------------------------------------------------------------
 -                                                                             -
 -                                GRID STATISTICS                              -
 -                                                                             -
 -------------------------------------------------------------------------------
 LP    KERNEL             BACKEND                              COUNT     PERCENT
 4     collocate ortho    REF                                3114294      48.78%
 4     integrate ortho    REF                                3052318      47.81%
 3     collocate ortho    REF                                 100340       1.57%
 3     integrate ortho    REF                                  98264       1.54%
 2     collocate ortho    REF                                   8364       0.13%
 2     integrate ortho    REF                                   8160       0.13%
 0     collocate general  REF                                   2064       0.03%
 -------------------------------------------------------------------------------

 MEMORY| Estimated peak process memory [MiB]                                2531

 -------------------------------------------------------------------------------
 -                                                                             -
 -                         MESSAGE PASSING PERFORMANCE                         -
 -                                                                             -
 -------------------------------------------------------------------------------

 ROUTINE             CALLS      AVE VOLUME [Bytes]
 MP_Group               24
 MP_Bcast              780                1226678.
 MP_Allreduce         3609                   6654.
 MP_Sync               454
 MP_Alltoall          2895               64011512.
 MP_SendRecv          9180                 845788.
 MP_ISendRecv         6450                 492480.
 MP_Wait             26575
 MP_comm_split         215
 MP_ISend            17500                1209055.
 MP_IRecv            17500                1208789.
 MP_Recv                58                 134296.
 -------------------------------------------------------------------------------


 -------------------------------------------------------------------------------
 -                                                                             -
 -                           R E F E R E N C E S                               -
 -                                                                             -
 -------------------------------------------------------------------------------
 
 CP2K version 2023.1, the CP2K developers group (2023).
 CP2K is freely available from https://www.cp2k.org/ .

 Kuehne,Thomas D.; Iannuzzi,Marcella; Del Ben,Mauro;
 Rybkin,Vladimir V.; Seewald,Patrick; Stein,Frederick; Laino,Teodoro;
 Khaliullin,Rustam Z.; Schuett,Ole; Schiffmann,Florian; Golze,Dorothea;
 Wilhelm,Jan; Chulkov,Sergey; Bani-Hashemian,Mohammad Hossein;
 Weber,Valery; Borstnik,Urban; Taillefumier,Mathieu;
 Jakobovits,Alice Shoshana; Lazzaro,Alfio; Pabst,Hans; Mueller,Tiziano;
 Schade,Robert; Guidon,Manuel; Andermatt,Samuel; Holmberg,Nico;
 Schenter,Gregory K.; Hehn,Anna; Bussy,Augustin; Belleflamme,Fabian;
 Tabacchi,Gloria; Gloess,Andreas; Lass,Michael; Bethune,Iain;
 Mundy,Christopher J.; Plessl,Christian; Watkins,Matt;
 VandeVondele,Joost; Krack,Matthias; Hutter,Juerg. 
 The Journal of Chemical Physics, 152 (19), (2020). 
 CP2K: An electronic structure and molecular dynamics software package -
 Quickstep: Efficient and accurate electronic structure calculations.
 https://doi.org/10.1063/5.0007045

 Goerigk, Lars; Hansen, Andreas; Bauer, Christoph; Ehrlich, Stephan;
 Najibi, Asim; Grimme, Stefan. , 19 (48), (2017). 
 A look at the density functional theory zoo with the advanced GMTKN55 database
 for general main group thermochemistry, kinetics and noncovalent interactions.
 https://doi.org/10.1039/C7CP04913G

 Schuett, Ole; Messmer, Peter; Hutter, Juerg; VandeVondele, Joost. 
 Electronic Structure Calculations on Graphics Processing Units, John
 Wiley & Sons, Ltd, 173-190 (2016). 
 GPU-Accelerated Sparse Matrix-Matrix Multiplication for
 Linear Scaling Density Functional Theory.
 https://doi.org/10.1002/9781118670712.ch8

 Borstnik, U; VandeVondele, J; Weber, V; Hutter, J. 
 PARALLEL COMPUTING, 40 (5-6), 47-58 (2014). 
 Sparse matrix multiplication: The distributed block-compressed sparse
 row library.
 https://doi.org/10.1016/j.parco.2014.03.012

 Hutter, J; Iannuzzi, M; Schiffmann, F; VandeVondele, J. 
 WIREs Comput Mol Sci., 4 (1), 15-25 (2014). 
 CP2K: atomistic simulations of condensed matter systems.
 https://doi.org/10.1002/wcms.1159

 Marek, A; Blum, V; Johanni, R; Havu, V; Lang, B; Auckenthaler, T;
 Heinecke, A; Bungartz, H; Lederer, H. 
 Journal of Physics: Condensed Matter, 26 (21), (2014). 
 The ELPA library: scalable parallel eigenvalue solutions for
 electronic structure
 theory and computational science.
 https://doi.org/10.1088/0953-8984/26/21/213201

 Grimme, S; Ehrlich, S; Goerigk, L. 
 JOURNAL OF COMPUTATIONAL CHEMISTRY, 32, 1456 (2011). 
 Effect of the damping function in dispersion corrected density functional theory.
 https://doi.org/10.1002/jcc.21759

 Grimme, S; Antony, J; Ehrlich, S; Krieg, H. 
 JOURNAL OF CHEMICAL PHYSICS, 132 (15), 154104 (2010). 
 A consistent and accurate ab initio parametrization of density
 functional dispersion correction (DFT-D) for the 94 elements H-Pu.
 https://doi.org/10.1063/1.3382344

 VandeVondele, J; Hutter, J. 
 JOURNAL OF CHEMICAL PHYSICS, 127 (11), 114105 (2007). 
 Gaussian basis sets for accurate calculations on molecular systems in
 gas and condensed phases.
 https://doi.org/10.1063/1.2770708

 Krack, M. 
 THEORETICAL CHEMISTRY ACCOUNTS, 114 (1-3), 145-152 (2005). 
 Pseudopotentials for H to Kr optimized for gradient-corrected
 exchange-correlation functionals.
 https://doi.org/10.1007/s00214-005-0655-y

 VandeVondele, J; Krack, M; Mohamed, F; Parrinello, M; Chassaing, T;
 Hutter, J. COMPUTER PHYSICS COMMUNICATIONS, 167 (2), 103-128 (2005). 
 QUICKSTEP: Fast and accurate density functional calculations using a
 mixed Gaussian and plane waves approach.
 https://doi.org/10.1016/j.cpc.2004.12.014

 Frigo, M; Johnson, SG. 
 PROCEEDINGS OF THE IEEE, 93 (2), 216-231 (2005). 
 The design and implementation of FFTW3.
 https://doi.org/10.1109/JPROC.2004.840301

 Hartwigsen, C; Goedecker, S; Hutter, J. 
 PHYSICAL REVIEW B, 58 (7), 3641-3662 (1998). 
 Relativistic separable dual-space Gaussian pseudopotentials from H to Rn.
 https://doi.org/10.1103/PhysRevB.58.3641

 Lippert, G; Hutter, J; Parrinello, M. 
 MOLECULAR PHYSICS, 92 (3), 477-487 (1997). 
 A hybrid Gaussian and plane wave density functional scheme.
 https://doi.org/10.1080/002689797170220

 Perdew, JP; Burke, K; Ernzerhof, M. 
 PHYSICAL REVIEW LETTERS, 77 (18), 3865-3868 (1996). 
 Generalized gradient approximation made simple.
 https://doi.org/10.1103/PhysRevLett.77.3865

 Goedecker, S; Teter, M; Hutter, J. 
 PHYSICAL REVIEW B, 54 (3), 1703-1710 (1996). 
 Separable dual-space Gaussian pseudopotentials.
 https://doi.org/10.1103/PhysRevB.54.1703


 -------------------------------------------------------------------------------
 -                                                                             -
 -                                T I M I N G                                  -
 -                                                                             -
 -------------------------------------------------------------------------------
 SUBROUTINE                       CALLS  ASD         SELF TIME        TOTAL TIME
                                MAXIMUM       AVERAGE  MAXIMUM  AVERAGE  MAXIMUM
 CP2K                                 1  1.0    0.042    0.074 1358.836 1358.844
 qs_energies                          5  2.0    0.000    0.000 1353.757 1353.990
 scf_env_do_scf                       5  3.0    0.001    0.002 1341.763 1341.988
 scf_env_do_scf_inner_loop          215  4.0    0.006    0.022 1341.763 1341.986
 gspace_mixing                      210  5.0    2.092    2.179  573.181  573.181
 pw_transfer                       2820  8.9    0.232    0.268  495.653  504.192
 fft_wrap_pw1pw2                   2390  9.9    0.034    0.037  483.316  491.767
 broyden_mixing                     210  6.0  478.354  480.963  481.179  481.945
 qs_ks_update_qs_env                215  5.0    0.001    0.002  479.620  479.624
 rebuild_ks_matrix                  215  6.0    0.001    0.001  479.595  479.599
 qs_ks_build_kohn_sham_matrix       215  7.0    0.032    0.035  479.595  479.598
 fft_wrap_pw1pw2_250               1085 10.2   41.861   44.196  447.866  456.157
 fft3d_ps                          2390 11.9  195.900  201.604  351.910  360.094
 qs_rho_update_rho_low              220  5.0    0.001    0.001  279.527  279.549
 calculate_rho_elec                 220  6.0    2.188    2.278  279.526  279.549
 density_rs2pw                      220  7.0    0.020    0.022  253.896  259.624
 sum_up_and_integrate               215  8.0    6.562    6.873  184.031  184.034
 integrate_v_rspace                 215  9.0    0.005    0.005  177.469  177.639
 qs_vxc_create                      215  8.0    0.009    0.010  161.097  163.883
 xc_vxc_pw_create                   215  9.0   10.594   12.489  161.089  163.875
 potential_pw2rs                    215 10.0    0.297    0.317  140.915  141.069
 xc_rho_set_and_dset_create         215 10.0   10.249   13.240  110.035  114.243
 x_to_yz                           1290 13.2   80.839   84.418  101.372  109.357
 rs_pw_transfer                    1745  9.5    0.034    0.041   79.040   84.656
 xc_functional_eval                 215 11.0    0.004    0.004   59.777   63.893
 pbe_lda_eval                       215 12.0   59.773   63.888   59.773   63.888
 yz_to_x                           1100 12.6   39.519   42.979   54.555   57.500
 xc_pw_derive                      1290 11.0    0.007    0.008   52.480   56.532
 pw_nn_compose_r                   1290 12.0   43.487   43.960   52.473   56.525
 pw_scatter_p                      1290 12.2   49.541   51.992   49.541   51.992
 mp_alltoall_z22v                  2390 13.9   35.569   45.391   35.569   45.391
 grid_collocate_task_list           220  7.0   21.128   42.564   21.128   42.564
 rs_pw_transfer_RS2PW_250           225  9.0    9.450   11.535   35.014   42.143
 pw_gather_p                       1100 11.6   36.908   40.555   36.908   40.555
 mp_waitany                       17500 11.5   33.501   40.372   33.501   40.372
 fft_wrap_pw1pw2_90                 435 11.5    2.592    3.056   30.339   36.738
 grid_integrate_task_list           215 10.0   11.962   36.498   11.962   36.498
 xc_pw_divergence                   215 10.0    0.004    0.005   31.522   35.904
 mp_alltoall_d11v                  3045  9.3   24.989   30.559   24.989   30.559
 rs_gather_matrices                 215 10.0    0.016    0.020   24.588   30.144
 pw_poisson_solve                   215  8.0    5.860    5.934   28.727   28.728
 pw_copy                           1935 10.4   26.481   27.392   26.481   27.392
 -------------------------------------------------------------------------------

 The number of warnings for this run is : 6
 
 -------------------------------------------------------------------------------
  **** **** ******  **  PROGRAM ENDED AT                 2025-07-16 18:26:10.671
 ***** ** ***  *** **   PROGRAM RAN ON                                sebnode120
 **    ****   ******    PROGRAM RAN BY                                    luehrs
 ***** **    ** ** **   PROGRAM PROCESS ID                                652655
  **** **  *******  **  PROGRAM STOPPED IN /home/luehrs/PhD/Sodium_batteries/Sod
                                           ium-graphene-edge/Armchair_3/No_hydro
                                           gen
