 DBCSR| CPU Multiplication driver                                           BLAS (U)
 DBCSR| Multrec recursion limit                                              512 (U)
 DBCSR| Multiplication stack size                                           1000 (D)
 DBCSR| Maximum elements for images                                    UNLIMITED (U)
 DBCSR| Multiplicative factor virtual images                                   1 (U)
 DBCSR| Use multiplication densification                                       T (D)
 DBCSR| Multiplication size stacks                                             3 (U)
 DBCSR| Use memory pool for CPU allocation                                     F (U)
 DBCSR| Number of 3D layers                                               SINGLE (U)
 DBCSR| Use MPI memory allocation                                              F (U)
 DBCSR| Use RMA algorithm                                                      F (U)
 DBCSR| Use Communication thread                                               T (U)
 DBCSR| Communication thread load                                             87 (D)
 DBCSR| MPI: My process id                                                     0
 DBCSR| MPI: Number of processes                                              16
 DBCSR| OMP: Current number of threads                                         1
 DBCSR| OMP: Max number of threads                                             1
 DBCSR| Split modifier for TAS multiplication algorithm                  1.0E+00 (U)


  **** **** ******  **  PROGRAM STARTED AT               2025-07-11 11:08:33.375
 ***** ** ***  *** **   PROGRAM STARTED ON                            sebnode121
 **    ****   ******    PROGRAM STARTED BY                                luehrs
 ***** **    ** ** **   PROGRAM PROCESS ID                                630244
  **** **  *******  **  PROGRAM STARTED IN /home/luehrs/PhD/Sodium_batteries/Sod
                                           ium-graphene-edge/Armchair_3/No_hydro
                                           gen

 CP2K| version string:                                       CP2K version 2023.1
 CP2K| source code revision number:                                  git:b888bd8
 CP2K| cp2kflags: omp libint fftw3 libxc elpa parallel scalapack spglib         
 CP2K| is freely available from                            https://www.cp2k.org/
 CP2K| Program compiled at                          Tue Jan 10 19:52:03 UTC 2023
 CP2K| Program compiled on                                            x86-ubc-01
 CP2K| Program compiled for                                Linux-x86_64-gfortran
 CP2K| Data directory path                                       /usr/share/cp2k
 CP2K| Input file name                                        input.armchair.inp

 GLOBAL| Force Environment number                                              1
 GLOBAL| Basis set file name                                      ./BASIS_MOLOPT
 GLOBAL| Potential file name                                    ./GTH_POTENTIALS
 GLOBAL| MM Potential file name                                     MM_POTENTIAL
 GLOBAL| Coordinate file name           ./graphene_armchair_no_hydrogen_PBE_rela
 GLOBAL| Method name                                                        CP2K
 GLOBAL| Project name                                 graphene_armchair_BSSE_PBE
 GLOBAL| Run type                                                           BSSE
 GLOBAL| FFT library                                                       FFTW3
 GLOBAL| Diagonalization library                                            ELPA
 GLOBAL| DGEMM library                                                      BLAS
 GLOBAL| Minimum number of eigenvectors for ELPA usage                        16
 GLOBAL| Orthonormality check for eigenvectors                          DISABLED
 GLOBAL| Matrix multiplication library                                 ScaLAPACK
 GLOBAL| All-to-all communication in single precision                          F
 GLOBAL| FFTs using library dependent lengths                                  F
 GLOBAL| Grid backend                                                       AUTO
 GLOBAL| Global print level                                                  LOW
 GLOBAL| MPI I/O enabled                                                       T
 GLOBAL| Total number of message passing processes                            16
 GLOBAL| Number of threads for this process                                    1
 GLOBAL| This output is from process                                           0
 GLOBAL| Stack size for threads created by OpenMP (OMP_STACKSIZE)        default
 GLOBAL| CPU model name                 Intel(R) Xeon(R) Gold 6144 CPU @ 3.50GHz

 MEMORY| system memory details [Kb]
 MEMORY|                        rank 0           min           max       average
 MEMORY| MemTotal             65585096      65585096      65585096      65585096
 MEMORY| MemFree              62913456      62913456      62913456      62913456
 MEMORY| Buffers                355220        355220        355220        355220
 MEMORY| Cached                 357520        357520        357520        357520
 MEMORY| Slab                   233556        233556        233556        233556
 MEMORY| SReclaimable            93080         93080         93080         93080
 MEMORY| MemLikelyFree        63719276      63719276      63719276      63719276


 GENERATE|  Preliminary Number of Bonds generated:                             0
 GENERATE|  Achieved consistency in connectivity generation.

 *******************************************************************************
 *******************************************************************************
 **                                                                           **
 **     #####                         ##              ##                      **
 **    ##   ##            ##          ##              ##                      **
 **   ##     ##                       ##            ######                    **
 **   ##     ##  ##   ##  ##   #####  ##  ##   ####   ##    #####    #####    **
 **   ##     ##  ##   ##  ##  ##      ## ##   ##      ##   ##   ##  ##   ##   **
 **   ##  ## ##  ##   ##  ##  ##      ####     ###    ##   ######   ######    **
 **    ##  ###   ##   ##  ##  ##      ## ##      ##   ##   ##       ##        **
 **     #######   #####   ##   #####  ##  ##  ####    ##    #####   ##        **
 **           ##                                                    ##        **
 **                                                                           **
 **                                                ... make the atoms dance   **
 **                                                                           **
 **            Copyright (C) by CP2K developers group (2000-2022)             **
 **                      J. Chem. Phys. 152, 194103 (2020)                    **
 **                                                                           **
 *******************************************************************************


 TOTAL NUMBERS AND MAXIMUM NUMBERS

  Total number of            - Atomic kinds:                                   2
                             - Atoms:                                         43
                             - Shell sets:                                    43
                             - Shells:                                       215
                             - Primitive Cartesian functions:                217
                             - Cartesian basis functions:                    597
                             - Spherical basis functions:                    555

  Maximum angular momentum of- Orbital basis functions:                        2
                             - Local part of the GTH pseudopotential:          2
                             - Non-local part of the GTH pseudopotential:      1


 SCF PARAMETERS         Density guess:                                    ATOMIC
                        --------------------------------------------------------
                        max_scf:                                             100
                        max_scf_history:                                       0
                        max_diis:                                              4
                        --------------------------------------------------------
                        eps_scf:                                        3.00E-07
                        eps_scf_history:                                0.00E+00
                        eps_diis:                                       1.00E-01
                        eps_eigval:                                     1.00E-05
                        --------------------------------------------------------
                        level_shift [a.u.]:                             0.000000
                        added MOs                                       100  100
                        --------------------------------------------------------
                        Mixing method:                            BROYDEN_MIXING
                                                charge density mixing in g-space
                        --------------------------------------------------------
                        Smear method:                                FERMI_DIRAC
                        Electronic temperature [K]:                        300.0
                        Electronic temperature [a.u.]:                  9.50E-04
                        Accuracy threshold:                             1.00E-10
                        --------------------------------------------------------
                        Outer loop SCF in use 
                        No variables optimised in outer loop
                        eps_scf                                         1.00E-06
                        max_scf                                              150
                        DIIS optimization
                        DIIS buffer length                                     3
                        step_size                                       5.00E-01

 -------------------------------------------------------------------------------
 -                                                                             -
 -  BSSE CALCULATION         FRAGMENT CONF: 10        FRAGMENT SUBCONF: 10     -
 -                           CHARGE =     0           MULTIPLICITY =     0     -
 -                                                                             -
 -                 ATOM INDEX                              ATOM NAME           -
 -                 ----------                              ---------           -
 -                      1                                   C                  -
 -                      2                                   C                  -
 -                      3                                   C                  -
 -                      4                                   C                  -
 -                      5                                   C                  -
 -                      6                                   C                  -
 -                      7                                   C                  -
 -                      8                                   C                  -
 -                      9                                   C                  -
 -                     10                                   C                  -
 -                     11                                   C                  -
 -                     12                                   C                  -
 -                     13                                   C                  -
 -                     14                                   C                  -
 -                     15                                   C                  -
 -                     16                                   C                  -
 -                     17                                   C                  -
 -                     18                                   C                  -
 -                     19                                   C                  -
 -                     20                                   C                  -
 -                     21                                   C                  -
 -                     22                                   C                  -
 -                     23                                   C                  -
 -                     24                                   C                  -
 -                     25                                   C                  -
 -                     26                                   C                  -
 -                     27                                   C                  -
 -                     28                                   C                  -
 -                     29                                   C                  -
 -                     30                                   C                  -
 -                     31                                   C                  -
 -                     32                                   C                  -
 -                     33                                   C                  -
 -                     34                                   C                  -
 -                     35                                   C                  -
 -                     36                                   C                  -
 -                     37                                   C                  -
 -                     38                                   C                  -
 -                     39                                   C                  -
 -                     40                                   C                  -
 -                     41                                   C                  -
 -                     42                                   C                  -
 -------------------------------------------------------------------------------

 *******************************************************************************
 *******************************************************************************
 **                                                                           **
 **     #####                         ##              ##                      **
 **    ##   ##            ##          ##              ##                      **
 **   ##     ##                       ##            ######                    **
 **   ##     ##  ##   ##  ##   #####  ##  ##   ####   ##    #####    #####    **
 **   ##     ##  ##   ##  ##  ##      ## ##   ##      ##   ##   ##  ##   ##   **
 **   ##  ## ##  ##   ##  ##  ##      ####     ###    ##   ######   ######    **
 **    ##  ###   ##   ##  ##  ##      ## ##      ##   ##   ##       ##        **
 **     #######   #####   ##   #####  ##  ##  ####    ##    #####   ##        **
 **           ##                                                    ##        **
 **                                                                           **
 **                                                ... make the atoms dance   **
 **                                                                           **
 **            Copyright (C) by CP2K developers group (2000-2022)             **
 **                      J. Chem. Phys. 152, 194103 (2020)                    **
 **                                                                           **
 *******************************************************************************


 TOTAL NUMBERS AND MAXIMUM NUMBERS

  Total number of            - Atomic kinds:                                   1
                             - Atoms:                                         42
                             - Shell sets:                                    42
                             - Shells:                                       210
                             - Primitive Cartesian functions:                210
                             - Cartesian basis functions:                    588
                             - Spherical basis functions:                    546

  Maximum angular momentum of- Orbital basis functions:                        2
                             - Local part of the GTH pseudopotential:          2
                             - Non-local part of the GTH pseudopotential:      0


 SCF PARAMETERS         Density guess:                                    ATOMIC
                        --------------------------------------------------------
                        max_scf:                                             100
                        max_scf_history:                                       0
                        max_diis:                                              4
                        --------------------------------------------------------
                        eps_scf:                                        3.00E-07
                        eps_scf_history:                                0.00E+00
                        eps_diis:                                       1.00E-01
                        eps_eigval:                                     1.00E-05
                        --------------------------------------------------------
                        level_shift [a.u.]:                             0.000000
                        added MOs                                       100  100
                        --------------------------------------------------------
                        Mixing method:                            BROYDEN_MIXING
                                                charge density mixing in g-space
                        --------------------------------------------------------
                        Smear method:                                FERMI_DIRAC
                        Electronic temperature [K]:                        300.0
                        Electronic temperature [a.u.]:                  9.50E-04
                        Accuracy threshold:                             1.00E-10
                        --------------------------------------------------------
                        Outer loop SCF in use 
                        No variables optimised in outer loop
                        eps_scf                                         1.00E-06
                        max_scf                                              150
                        DIIS optimization
                        DIIS buffer length                                     3
                        step_size                                       5.00E-01

 Spin 1

 Number of electrons:                                                         84
 Number of occupied orbitals:                                                 84
 Number of molecular orbitals:                                               184

 Spin 2

 Number of electrons:                                                         84
 Number of occupied orbitals:                                                 84
 Number of molecular orbitals:                                               184

 Number of orbital functions:                                                546
 Number of independent orbital functions:                                    546

 Extrapolation method: initial_guess


 SCF WAVEFUNCTION OPTIMIZATION

  Step     Update method      Time    Convergence         Total energy    Change
  ------------------------------------------------------------------------------
     1 NoMix/Diag. 0.10E+00    3.8     0.46915374      -236.3673047444 -2.36E+02
     2 Broy./Diag. 0.10E+00    7.8     0.00530219      -227.1423756336  9.22E+00
     3 Broy./Diag. 0.10E+00    8.2     0.05135300      -233.9438759374 -6.80E+00
     4 Broy./Diag. 0.10E+00    8.3     0.00378128      -237.3092779819 -3.37E+00
     5 Broy./Diag. 0.10E+00    8.5     0.01820836      -237.5402720851 -2.31E-01
     6 Broy./Diag. 0.10E+00    8.7     0.00085789      -237.7794634004 -2.39E-01
     7 Broy./Diag. 0.10E+00    8.9     0.00536375      -237.8611175924 -8.17E-02
     8 Broy./Diag. 0.10E+00    9.2     0.00022300      -237.9774001642 -1.16E-01
     9 Broy./Diag. 0.10E+00    9.5     0.00107859      -238.0598797289 -8.25E-02
    10 Broy./Diag. 0.10E+00    9.9     0.00008905      -238.1350333142 -7.52E-02
    11 Broy./Diag. 0.10E+00   10.3     0.00082595      -238.1598487246 -2.48E-02
    12 Broy./Diag. 0.10E+00   10.7     0.00003311      -238.1946866849 -3.48E-02
    13 Broy./Diag. 0.10E+00   11.2     0.00029983      -238.1872651258  7.42E-03
    14 Broy./Diag. 0.10E+00   11.7     0.00003136      -238.1990412005 -1.18E-02
    15 Broy./Diag. 0.10E+00   12.2     0.00018421      -238.2002132704 -1.17E-03
    16 Broy./Diag. 0.10E+00   13.3     0.00004313      -238.2075970560 -7.38E-03
    17 Broy./Diag. 0.10E+00   18.4     0.00014359      -238.2122136766 -4.62E-03
    18 Broy./Diag. 0.10E+00   13.6     0.00002719      -238.2171826825 -4.97E-03
    19 Broy./Diag. 0.10E+00   13.6     0.00007424      -238.2205747959 -3.39E-03
    20 Broy./Diag. 0.10E+00   13.6     0.00000847      -238.2226207933 -2.05E-03
    21 Broy./Diag. 0.10E+00   13.6     0.00003093      -238.2220434599  5.77E-04
    22 Broy./Diag. 0.10E+00   13.6     0.00000350      -238.2227935898 -7.50E-04
    23 Broy./Diag. 0.10E+00   13.7     0.00001770      -238.2232152359 -4.22E-04
    24 Broy./Diag. 0.10E+00   13.6     0.00000386      -238.2240637046 -8.48E-04
    25 Broy./Diag. 0.10E+00   13.6     0.00000997      -238.2236666227  3.97E-04
    26 Broy./Diag. 0.10E+00   13.6     0.00000857      -238.2236949467 -2.83E-05
    27 Broy./Diag. 0.10E+00   13.6     0.00000629      -238.2238123109 -1.17E-04
    28 Broy./Diag. 0.10E+00   13.6     0.00000699      -238.2243249620 -5.13E-04
    29 Broy./Diag. 0.10E+00   13.5     0.00000179      -238.2247213681 -3.96E-04
    30 Broy./Diag. 0.10E+00   13.7     0.00000353      -238.2247091938  1.22E-05
    31 Broy./Diag. 0.10E+00   13.7     0.00000089      -238.2247075213  1.67E-06
    32 Broy./Diag. 0.10E+00   13.7     0.00000313      -238.2245558809  1.52E-04
    33 Broy./Diag. 0.10E+00   13.6     0.00000085      -238.2245005014  5.54E-05
    34 Broy./Diag. 0.10E+00   13.6     0.00000276      -238.2245370174 -3.65E-05
    35 Broy./Diag. 0.10E+00   13.6     0.00000079      -238.2245130587  2.40E-05
    36 Broy./Diag. 0.10E+00   13.5     0.00000243      -238.2245240451 -1.10E-05
    37 Broy./Diag. 0.10E+00   13.6     0.00000038      -238.2245004177  2.36E-05
    38 Broy./Diag. 0.10E+00   13.6     0.00000105      -238.2244747406  2.57E-05
    39 Broy./Diag. 0.10E+00   13.6     0.00000007      -238.2244592875  1.55E-05

  *** SCF run converged in    39 steps ***


  Electronic density on regular grids:       -167.9999999999        0.0000000001
  Core density on regular grids:              167.9999999999       -0.0000000001
  Total charge density on r-space grids:       -0.0000000001
  Total charge density g-space grids:          -0.0000000001

  Overlap energy of the core charge distribution:               0.00004450313876
  Self energy of the core charge distribution:               -560.07033292413882
  Core Hamiltonian energy:                                    175.10556962978458
  Hartree energy:                                             219.61118280951518
  Exchange-correlation energy:                                -72.83303732075325
  Dispersion energy:                                           -0.03788598501191
  Electronic entropic energy:                                  -0.00000000000358
  Fermi energy:                                                -0.16710732269636

  Total energy:                                              -238.22445928746910

  outer SCF iter =    1 RMS gradient =   0.72E-07 energy =       -238.2244592875
  outer SCF loop converged in   1 iterations or   39 steps


  Integrated absolute spin density  :                               0.0000000134
  WARNING: S**2 computation does not yet treat fractional occupied orbitals

 *** WARNING in qs_loc_utils.F:1500 :: User requested the calculation of ***
 *** the localized wavefunction but the section LOCALIZE was not         ***
 *** specified. Localization will not be performed!                      ***


 -------------------------------------------------------------------------------
 -                                                                             -
 -  BSSE CALCULATION         FRAGMENT CONF: 01        FRAGMENT SUBCONF: 01     -
 -                           CHARGE =     0           MULTIPLICITY =     0     -
 -                                                                             -
 -                 ATOM INDEX                              ATOM NAME           -
 -                 ----------                              ---------           -
 -                     43                                   Na                 -
 -------------------------------------------------------------------------------

 *******************************************************************************
 *******************************************************************************
 **                                                                           **
 **     #####                         ##              ##                      **
 **    ##   ##            ##          ##              ##                      **
 **   ##     ##                       ##            ######                    **
 **   ##     ##  ##   ##  ##   #####  ##  ##   ####   ##    #####    #####    **
 **   ##     ##  ##   ##  ##  ##      ## ##   ##      ##   ##   ##  ##   ##   **
 **   ##  ## ##  ##   ##  ##  ##      ####     ###    ##   ######   ######    **
 **    ##  ###   ##   ##  ##  ##      ## ##      ##   ##   ##       ##        **
 **     #######   #####   ##   #####  ##  ##  ####    ##    #####   ##        **
 **           ##                                                    ##        **
 **                                                                           **
 **                                                ... make the atoms dance   **
 **                                                                           **
 **            Copyright (C) by CP2K developers group (2000-2022)             **
 **                      J. Chem. Phys. 152, 194103 (2020)                    **
 **                                                                           **
 *******************************************************************************

 *** WARNING in qs_environment.F:1470 :: More ADDED_MOs requested for beta ***
 *** spin than available.                                                  ***


 *** WARNING in qs_environment.F:1486 :: More added MOs requested than     ***
 *** available. The full set of unoccupied MOs will be used. Use           ***
 *** 'ADDED_MOS -1' to always use all available MOs and to get rid of this ***
 *** warning.                                                              ***



 TOTAL NUMBERS AND MAXIMUM NUMBERS

  Total number of            - Atomic kinds:                                   1
                             - Atoms:                                          1
                             - Shell sets:                                     1
                             - Shells:                                         5
                             - Primitive Cartesian functions:                  7
                             - Cartesian basis functions:                      9
                             - Spherical basis functions:                      9

  Maximum angular momentum of- Orbital basis functions:                        1
                             - Local part of the GTH pseudopotential:          2
                             - Non-local part of the GTH pseudopotential:      1


 SCF PARAMETERS         Density guess:                                    ATOMIC
                        --------------------------------------------------------
                        max_scf:                                             100
                        max_scf_history:                                       0
                        max_diis:                                              4
                        --------------------------------------------------------
                        eps_scf:                                        3.00E-07
                        eps_scf_history:                                0.00E+00
                        eps_diis:                                       1.00E-01
                        eps_eigval:                                     1.00E-05
                        --------------------------------------------------------
                        level_shift [a.u.]:                             0.000000
                        added MOs                                         4    5
                        --------------------------------------------------------
                        Mixing method:                            BROYDEN_MIXING
                                                charge density mixing in g-space
                        --------------------------------------------------------
                        Smear method:                                FERMI_DIRAC
                        Electronic temperature [K]:                        300.0
                        Electronic temperature [a.u.]:                  9.50E-04
                        Accuracy threshold:                             1.00E-10
                        --------------------------------------------------------
                        Outer loop SCF in use 
                        No variables optimised in outer loop
                        eps_scf                                         1.00E-06
                        max_scf                                              150
                        DIIS optimization
                        DIIS buffer length                                     3
                        step_size                                       5.00E-01

 Spin 1

 Number of electrons:                                                          5
 Number of occupied orbitals:                                                  5
 Number of molecular orbitals:                                                 9

 Spin 2

 Number of electrons:                                                          4
 Number of occupied orbitals:                                                  4
 Number of molecular orbitals:                                                 9

 Number of orbital functions:                                                  9
 Number of independent orbital functions:                                      9

 Extrapolation method: initial_guess


 SCF WAVEFUNCTION OPTIMIZATION

  Step     Update method      Time    Convergence         Total energy    Change
  ------------------------------------------------------------------------------
     1 NoMix/Diag. 0.10E+00    3.4     0.42045658       -47.1709848169 -4.72E+01
     2 Broy./Diag. 0.10E+00    7.8     0.00688671       -47.1304767918  4.05E-02
     3 Broy./Diag. 0.10E+00    8.2     0.02089171       -47.1718092566 -4.13E-02
     4 Broy./Diag. 0.10E+00    8.3     0.00033255       -47.1629974232  8.81E-03
     5 Broy./Diag. 0.10E+00    8.4     0.12643171       -47.1731914053 -1.02E-02
     6 Broy./Diag. 0.10E+00    8.6     0.01706964       -46.7612468129  4.12E-01
     7 Broy./Diag. 0.10E+00    8.8     0.00390373       -46.7519998050  9.25E-03
     8 Broy./Diag. 0.10E+00    9.1     0.01062895       -46.7692872968 -1.73E-02
     9 Broy./Diag. 0.10E+00    9.4     0.04251746       -46.8686215114 -9.93E-02
    10 Broy./Diag. 0.10E+00    9.8     0.01755117       -47.0224153907 -1.54E-01
    11 Broy./Diag. 0.10E+00   10.2     0.00593916       -47.0902437748 -6.78E-02
    12 Broy./Diag. 0.10E+00   10.6     0.01564616       -47.1117371943 -2.15E-02
    13 Broy./Diag. 0.10E+00   11.1     0.01812794       -47.1638589592 -5.21E-02
    14 Broy./Diag. 0.10E+00   11.6     0.00359925       -47.2137984438 -4.99E-02
    15 Broy./Diag. 0.10E+00   12.1     0.01472055       -47.1724884010  4.13E-02
    16 Broy./Diag. 0.10E+00   12.7     0.00708525       -47.1753725248 -2.88E-03
    17 Broy./Diag. 0.10E+00   13.5     0.00272768       -47.1963838260 -2.10E-02
    18 Broy./Diag. 0.10E+00   13.4     0.00214485       -47.2111110928 -1.47E-02
    19 Broy./Diag. 0.10E+00   13.5     0.00778570       -47.2323838522 -2.13E-02
    20 Broy./Diag. 0.10E+00   13.5     0.00128492       -47.2759106658 -4.35E-02
    21 Broy./Diag. 0.10E+00   13.4     0.00031415       -47.2779656621 -2.05E-03
    22 Broy./Diag. 0.10E+00   13.4     0.00072578       -47.2831422572 -5.18E-03
    23 Broy./Diag. 0.10E+00   13.6     0.01299711       -47.2924007437 -9.26E-03
    24 Broy./Diag. 0.10E+00   13.6     0.00123870       -47.2294522520  6.29E-02
    25 Broy./Diag. 0.10E+00   13.5     0.00011151       -47.2269632519  2.49E-03
    26 Broy./Diag. 0.10E+00   13.6     0.00013492       -47.2279253846 -9.62E-04
    27 Broy./Diag. 0.10E+00   13.5     0.00211826       -47.2329130593 -4.99E-03
    28 Broy./Diag. 0.10E+00   13.5     0.00056156       -47.2423340556 -9.42E-03
    29 Broy./Diag. 0.10E+00   13.4     0.00013808       -47.2435746442 -1.24E-03
    30 Broy./Diag. 0.10E+00   13.5     0.00029185       -47.2432136447  3.61E-04
    31 Broy./Diag. 0.10E+00   13.5     0.00119810       -47.2319214899  1.13E-02
    32 Broy./Diag. 0.10E+00   13.6     0.00575488       -47.2340943163 -2.17E-03
    33 Broy./Diag. 0.10E+00   13.5     0.00186706       -47.2546482526 -2.06E-02
    34 Broy./Diag. 0.10E+00   13.5     0.00061003       -47.2710286834 -1.64E-02
    35 Broy./Diag. 0.10E+00   13.4     0.00045512       -47.2734065680 -2.38E-03
    36 Broy./Diag. 0.10E+00   13.4     0.00189323       -47.2899737199 -1.66E-02
    37 Broy./Diag. 0.10E+00   13.6     0.00070445       -47.3001788892 -1.02E-02
    38 Broy./Diag. 0.10E+00   13.6     0.00024392       -47.3171215709 -1.69E-02
    39 Broy./Diag. 0.10E+00   13.6     0.00004158       -47.3182523228 -1.13E-03
    40 Broy./Diag. 0.10E+00   13.6     0.00007366       -47.3145865238  3.67E-03
    41 Broy./Diag. 0.10E+00   13.5     0.00026441       -47.3046325710  9.95E-03
    42 Broy./Diag. 0.10E+00   13.5     0.00028354       -47.2905626803  1.41E-02
    43 Broy./Diag. 0.10E+00   13.3     0.00024395       -47.2747374865  1.58E-02
    44 Broy./Diag. 0.10E+00   13.5     0.00033481       -47.2619121987  1.28E-02
    45 Broy./Diag. 0.10E+00   13.5     0.00007431       -47.2564658297  5.45E-03
    46 Broy./Diag. 0.10E+00   13.5     0.00006519       -47.2581635608 -1.70E-03
    47 Broy./Diag. 0.10E+00   13.5     0.00031424       -47.2584784976 -3.15E-04
    48 Broy./Diag. 0.10E+00   13.5     0.00016174       -47.2546369255  3.84E-03
    49 Broy./Diag. 0.10E+00   13.4     0.00126840       -47.2309520236  2.37E-02
    50 Broy./Diag. 0.10E+00   13.3     0.00019134       -47.2130809197  1.79E-02
    51 Broy./Diag. 0.10E+00   13.5     0.00058452       -47.1798335661  3.32E-02
    52 Broy./Diag. 0.10E+00   13.6     0.00124942       -47.1696540456  1.02E-02
    53 Broy./Diag. 0.10E+00   13.5     0.00071522       -47.1704029184 -7.49E-04
    54 Broy./Diag. 0.10E+00   13.5     0.00090308       -47.1692774731  1.13E-03
    55 Broy./Diag. 0.10E+00   13.5     0.00030492       -47.1642740801  5.00E-03
    56 Broy./Diag. 0.10E+00   13.5     0.00006467       -47.1658655503 -1.59E-03
    57 Broy./Diag. 0.10E+00   13.3     0.00007402       -47.1660221237 -1.57E-04
    58 Broy./Diag. 0.10E+00   13.4     0.00006682       -47.1656380553  3.84E-04
    59 Broy./Diag. 0.10E+00   13.4     0.00001194       -47.1657222727 -8.42E-05
    60 Broy./Diag. 0.10E+00   13.3     0.00115885       -47.1647925517  9.30E-04
    61 Broy./Diag. 0.10E+00   13.4     0.00017840       -47.1630821536  1.71E-03
    62 Broy./Diag. 0.10E+00   13.4     0.00024788       -47.1648727436 -1.79E-03
    63 Broy./Diag. 0.10E+00   13.3     0.00033746       -47.1652203844 -3.48E-04
    64 Broy./Diag. 0.10E+00   13.3     0.00034106       -47.1632814688  1.94E-03
    65 Broy./Diag. 0.10E+00   13.3     0.00018984       -47.1646855881 -1.40E-03
    66 Broy./Diag. 0.10E+00   13.3     0.00017164       -47.1650043463 -3.19E-04
    67 Broy./Diag. 0.10E+00   13.3     0.00008032       -47.1643382487  6.66E-04
    68 Broy./Diag. 0.10E+00   13.3     0.00013435       -47.1645244411 -1.86E-04
    69 Broy./Diag. 0.10E+00   13.3     0.00064776       -47.1643813578  1.43E-04
    70 Broy./Diag. 0.10E+00   13.3     0.00091986       -47.1636637138  7.18E-04
    71 Broy./Diag. 0.10E+00   13.3     0.00068537       -47.1621090539  1.55E-03
    72 Broy./Diag. 0.10E+00   13.3     0.00008005       -47.1588360727  3.27E-03
    73 Broy./Diag. 0.10E+00   13.3     0.00035916       -47.1583498817  4.86E-04
    74 Broy./Diag. 0.10E+00   13.3     0.00020890       -47.1595922232 -1.24E-03
    75 Broy./Diag. 0.10E+00   13.3     0.00004924       -47.1600405293 -4.48E-04
    76 Broy./Diag. 0.10E+00   13.4     0.00077776       -47.1597883321  2.52E-04
    77 Broy./Diag. 0.10E+00   13.3     0.00006091       -47.1559440408  3.84E-03
    78 Broy./Diag. 0.10E+00   13.3     0.00059628       -47.1561473865 -2.03E-04
    79 Broy./Diag. 0.10E+00   13.3     0.00139904       -47.1578370432 -1.69E-03
    80 Broy./Diag. 0.10E+00   13.3     0.00054808       -47.1639747077 -6.14E-03
    81 Broy./Diag. 0.10E+00   13.3     0.00094787       -47.1661526019 -2.18E-03
    82 Broy./Diag. 0.10E+00   13.3     0.00082153       -47.1613306855  4.82E-03
    83 Broy./Diag. 0.10E+00   13.3     0.00019875       -47.1651375043 -3.81E-03
    84 Broy./Diag. 0.10E+00   13.3     0.00021310       -47.1647817073  3.56E-04
    85 Broy./Diag. 0.10E+00   13.3     0.00007185       -47.1660407010 -1.26E-03
    86 Broy./Diag. 0.10E+00   13.4     0.00017849       -47.1663308324 -2.90E-04
    87 Broy./Diag. 0.10E+00   13.3     0.00025050       -47.1673317854 -1.00E-03
    88 Broy./Diag. 0.10E+00   13.3     0.00011063       -47.1679934861 -6.62E-04
    89 Broy./Diag. 0.10E+00   13.3     0.00019269       -47.1680073814 -1.39E-05
    90 Broy./Diag. 0.10E+00   13.3     0.00005073       -47.1674913593  5.16E-04
    91 Broy./Diag. 0.10E+00   13.3     0.00029934       -47.1677404419 -2.49E-04
    92 Broy./Diag. 0.10E+00   13.2     0.00031255       -47.1681711453 -4.31E-04
    93 Broy./Diag. 0.10E+00   13.2     0.00031434       -47.1675207621  6.50E-04
    94 Broy./Diag. 0.10E+00   13.2     0.00002639       -47.1680258032 -5.05E-04
    95 Broy./Diag. 0.10E+00   13.2     0.00022249       -47.1674877378  5.38E-04
    96 Broy./Diag. 0.10E+00   13.2     0.00020788       -47.1668244779  6.63E-04
    97 Broy./Diag. 0.10E+00   13.2     0.00018482       -47.1669645745 -1.40E-04
    98 Broy./Diag. 0.10E+00   13.2     0.00014315       -47.1660063617  9.58E-04
    99 Broy./Diag. 0.10E+00   13.2     0.00011421       -47.1661070051 -1.01E-04
   100 Broy./Diag. 0.10E+00   13.2     0.00005429       -47.1657921676  3.15E-04

  Leaving inner SCF loop after reaching   100 steps.


  Electronic density on regular grids:         -8.9999957371        0.0000042629
  Core density on regular grids:                9.0000000000       -0.0000000000
  Total charge density on r-space grids:        0.0000042629
  Total charge density g-space grids:           0.0000042629

  Overlap energy of the core charge distribution:               0.00000000000000
  Self energy of the core charge distribution:                -96.60649019442629
  Core Hamiltonian energy:                                     29.76242877060471
  Hartree energy:                                              26.73388522793763
  Exchange-correlation energy:                                 -7.05560713712133
  Dispersion energy:                                           -0.00000883455364
  Electronic entropic energy:                                  -0.00000000000000
  Fermi energy:                                                -0.06200810437107

  Total energy:                                               -47.16579216755893

  outer SCF iter =    1 RMS gradient =   0.54E-04 energy =        -47.1657921676
     1 Broy./Diag. 0.10E+00   18.8     0.00014365       -47.1650497437  7.42E-04
     2 Broy./Diag. 0.10E+00   13.2     0.00035623       -47.1660879884 -1.04E-03
     3 Broy./Diag. 0.10E+00   13.2     0.00011783       -47.1653223212  7.66E-04
     4 Broy./Diag. 0.10E+00   13.2     0.00003522       -47.1653875987 -6.53E-05
     5 Broy./Diag. 0.10E+00   13.2     0.00008347       -47.1655813842 -1.94E-04
     6 Broy./Diag. 0.10E+00   13.2     0.00004998       -47.1655812269  1.57E-07
     7 Broy./Diag. 0.10E+00   13.3     0.00007300       -47.1655982603 -1.70E-05
     8 Broy./Diag. 0.10E+00   13.2     0.00003438       -47.1654532046  1.45E-04
     9 Broy./Diag. 0.10E+00   13.2     0.00004971       -47.1652566144  1.97E-04
    10 Broy./Diag. 0.10E+00   13.2     0.00002963       -47.1654278459 -1.71E-04
    11 Broy./Diag. 0.10E+00   13.3     0.00002343       -47.1654033053  2.45E-05
    12 Broy./Diag. 0.10E+00   13.3     0.00003564       -47.1652807856  1.23E-04
    13 Broy./Diag. 0.10E+00   13.2     0.00000129       -47.1653532885 -7.25E-05
    14 Broy./Diag. 0.10E+00   13.3     0.00000814       -47.1654204680 -6.72E-05
    15 Broy./Diag. 0.10E+00   13.2     0.00001002       -47.1655842260 -1.64E-04
    16 Broy./Diag. 0.10E+00   13.3     0.00001320       -47.1656329065 -4.87E-05
    17 Broy./Diag. 0.10E+00   13.2     0.00001183       -47.1656269439  5.96E-06
    18 Broy./Diag. 0.10E+00   13.2     0.00001353       -47.1656410313 -1.41E-05
    19 Broy./Diag. 0.10E+00   13.2     0.00000535       -47.1654887237  1.52E-04
    20 Broy./Diag. 0.10E+00   13.2     0.00002264       -47.1654694822  1.92E-05
    21 Broy./Diag. 0.10E+00   13.3     0.00004731       -47.1655715094 -1.02E-04
    22 Broy./Diag. 0.10E+00   13.3     0.00005783       -47.1657634100 -1.92E-04
    23 Broy./Diag. 0.10E+00   13.3     0.00000695       -47.1656393315  1.24E-04
    24 Broy./Diag. 0.10E+00   13.3     0.00006184       -47.1656537352 -1.44E-05
    25 Broy./Diag. 0.10E+00   13.3     0.00006838       -47.1657680514 -1.14E-04
    26 Broy./Diag. 0.10E+00   13.2     0.00024783       -47.1659675739 -2.00E-04
    27 Broy./Diag. 0.10E+00   13.2     0.00007454       -47.1658278044  1.40E-04
    28 Broy./Diag. 0.10E+00   13.2     0.00002183       -47.1658801945 -5.24E-05
    29 Broy./Diag. 0.10E+00   13.3     0.00001325       -47.1659844143 -1.04E-04
    30 Broy./Diag. 0.10E+00   13.2     0.00004022       -47.1660573769 -7.30E-05
    31 Broy./Diag. 0.10E+00   13.3     0.00005966       -47.1670079416 -9.51E-04
    32 Broy./Diag. 0.10E+00   13.3     0.00000765       -47.1677660812 -7.58E-04
    33 Broy./Diag. 0.10E+00   13.2     0.00003317       -47.1673585034  4.08E-04
    34 Broy./Diag. 0.10E+00   13.2     0.00002205       -47.1670340874  3.24E-04
    35 Broy./Diag. 0.10E+00   13.4     0.00001602       -47.1667843381  2.50E-04
    36 Broy./Diag. 0.10E+00   13.3     0.00005382       -47.1663420730  4.42E-04
    37 Broy./Diag. 0.10E+00   13.3     0.00002300       -47.1657937199  5.48E-04
    38 Broy./Diag. 0.10E+00   13.3     0.00006588       -47.1655019151  2.92E-04
    39 Broy./Diag. 0.10E+00   13.3     0.00005397       -47.1651504119  3.52E-04
    40 Broy./Diag. 0.10E+00   13.2     0.00017568       -47.1649498909  2.01E-04
    41 Broy./Diag. 0.10E+00   13.2     0.00006379       -47.1642246003  7.25E-04
    42 Broy./Diag. 0.10E+00   13.3     0.00005745       -47.1641480895  7.65E-05
    43 Broy./Diag. 0.10E+00   13.3     0.00001421       -47.1639055908  2.42E-04
    44 Broy./Diag. 0.10E+00   13.3     0.00000563       -47.1638880047  1.76E-05
    45 Broy./Diag. 0.10E+00   13.3     0.00010553       -47.1636361133  2.52E-04
    46 Broy./Diag. 0.10E+00   13.3     0.00000506       -47.1634019789  2.34E-04
    47 Broy./Diag. 0.10E+00   13.3     0.00004027       -47.1634923667 -9.04E-05
    48 Broy./Diag. 0.10E+00   13.2     0.00037403       -47.1636050890 -1.13E-04
    49 Broy./Diag. 0.10E+00   13.3     0.00003211       -47.1648702800 -1.27E-03
    50 Broy./Diag. 0.10E+00   13.3     0.00002697       -47.1645682863  3.02E-04
    51 Broy./Diag. 0.10E+00   13.3     0.00007904       -47.1642381364  3.30E-04
    52 Broy./Diag. 0.10E+00   13.3     0.00003147       -47.1640414177  1.97E-04
    53 Broy./Diag. 0.10E+00   13.3     0.00008267       -47.1638923279  1.49E-04
    54 Broy./Diag. 0.10E+00   13.3     0.00001978       -47.1641119474 -2.20E-04
    55 Broy./Diag. 0.10E+00   13.2     0.00002678       -47.1640476267  6.43E-05
    56 Broy./Diag. 0.10E+00   13.3     0.00001810       -47.1641040887 -5.65E-05
    57 Broy./Diag. 0.10E+00   13.3     0.00001316       -47.1641775416 -7.35E-05
    58 Broy./Diag. 0.10E+00   13.3     0.00009179       -47.1642282382 -5.07E-05
    59 Broy./Diag. 0.10E+00   13.3     0.00009768       -47.1646025571 -3.74E-04
    60 Broy./Diag. 0.10E+00   13.3     0.00008673       -47.1651113972 -5.09E-04
    61 Broy./Diag. 0.10E+00   13.3     0.00011925       -47.1655376998 -4.26E-04
    62 Broy./Diag. 0.10E+00   13.2     0.00006547       -47.1660236367 -4.86E-04
    63 Broy./Diag. 0.10E+00   13.3     0.00001809       -47.1662224241 -1.99E-04
    64 Broy./Diag. 0.10E+00   13.3     0.00002540       -47.1662273890 -4.96E-06
    65 Broy./Diag. 0.10E+00   13.3     0.00004200       -47.1663130797 -8.57E-05
    66 Broy./Diag. 0.10E+00   13.3     0.00008131       -47.1665367786 -2.24E-04
    67 Broy./Diag. 0.10E+00   13.3     0.00002377       -47.1669042165 -3.67E-04
    68 Broy./Diag. 0.10E+00   13.3     0.00000554       -47.1669749790 -7.08E-05
    69 Broy./Diag. 0.10E+00   13.3     0.00000245       -47.1668287568  1.46E-04
    70 Broy./Diag. 0.10E+00   13.3     0.00000314       -47.1668660451 -3.73E-05
    71 Broy./Diag. 0.10E+00   13.3     0.00000308       -47.1667645413  1.02E-04
    72 Broy./Diag. 0.10E+00   13.3     0.00000087       -47.1667000915  6.44E-05
    73 Broy./Diag. 0.10E+00   13.3     0.00000380       -47.1665714447  1.29E-04
    74 Broy./Diag. 0.10E+00   13.3     0.00000201       -47.1664619651  1.09E-04
    75 Broy./Diag. 0.10E+00   13.3     0.00000567       -47.1664051431  5.68E-05
    76 Broy./Diag. 0.10E+00   13.2     0.00000889       -47.1663754232  2.97E-05
    77 Broy./Diag. 0.10E+00   13.3     0.00004916       -47.1662807963  9.46E-05
    78 Broy./Diag. 0.10E+00   13.3     0.00001096       -47.1658776982  4.03E-04
    79 Broy./Diag. 0.10E+00   13.2     0.00003091       -47.1657399869  1.38E-04
    80 Broy./Diag. 0.10E+00   13.2     0.00002968       -47.1654961000  2.44E-04
    81 Broy./Diag. 0.10E+00   13.2     0.00001638       -47.1653396031  1.56E-04
    82 Broy./Diag. 0.10E+00   13.2     0.00001849       -47.1652846637  5.49E-05
    83 Broy./Diag. 0.10E+00   13.2     0.00000886       -47.1652580867  2.66E-05
    84 Broy./Diag. 0.10E+00   13.2     0.00002068       -47.1651937905  6.43E-05
    85 Broy./Diag. 0.10E+00   13.2     0.00000687       -47.1650843544  1.09E-04
    86 Broy./Diag. 0.10E+00   13.2     0.00000901       -47.1650534079  3.09E-05
    87 Broy./Diag. 0.10E+00   13.3     0.00000277       -47.1650612748 -7.87E-06
    88 Broy./Diag. 0.10E+00   13.3     0.00003222       -47.1650663637 -5.09E-06
    89 Broy./Diag. 0.10E+00   13.3     0.00002314       -47.1651456844 -7.93E-05
    90 Broy./Diag. 0.10E+00   13.2     0.00001495       -47.1651760798 -3.04E-05
    91 Broy./Diag. 0.10E+00   13.3     0.00002377       -47.1652075429 -3.15E-05
    92 Broy./Diag. 0.10E+00   13.2     0.00001085       -47.1652841747 -7.66E-05
    93 Broy./Diag. 0.10E+00   13.2     0.00001086       -47.1653629909 -7.88E-05
    94 Broy./Diag. 0.10E+00   13.3     0.00000310       -47.1654255763 -6.26E-05
    95 Broy./Diag. 0.10E+00   13.2     0.00000178       -47.1654494263 -2.38E-05
    96 Broy./Diag. 0.10E+00   13.2     0.00000416       -47.1654653886 -1.60E-05
    97 Broy./Diag. 0.10E+00   13.2     0.00000603       -47.1654622604  3.13E-06
    98 Broy./Diag. 0.10E+00   13.2     0.00000552       -47.1654295384  3.27E-05
    99 Broy./Diag. 0.10E+00   13.2     0.00000517       -47.1654252246  4.31E-06
   100 Broy./Diag. 0.10E+00   13.1     0.00000855       -47.1654555466 -3.03E-05

  Leaving inner SCF loop after reaching   100 steps.


  Electronic density on regular grids:         -8.9999957370        0.0000042630
  Core density on regular grids:                9.0000000000       -0.0000000000
  Total charge density on r-space grids:        0.0000042630
  Total charge density g-space grids:           0.0000042630

  Overlap energy of the core charge distribution:               0.00000000000000
  Self energy of the core charge distribution:                -96.60649019442629
  Core Hamiltonian energy:                                     29.76217520036062
  Hartree energy:                                              26.73435201086266
  Exchange-correlation energy:                                 -7.05548372883064
  Dispersion energy:                                           -0.00000883455364
  Electronic entropic energy:                                  -0.00000000000000
  Fermi energy:                                                -0.06261887685217

  Total energy:                                               -47.16545554658727

  outer SCF iter =    2 RMS gradient =   0.86E-05 energy =        -47.1654555466
     1 Broy./Diag. 0.10E+00   18.8     0.00000817       -47.1650497928  4.06E-04
     2 Broy./Diag. 0.10E+00   13.2     0.00000807       -47.1654691112 -4.19E-04
     3 Broy./Diag. 0.10E+00   13.2     0.00000473       -47.1654960456 -2.69E-05
     4 Broy./Diag. 0.10E+00   13.0     0.00000728       -47.1655050030 -8.96E-06
     5 Broy./Diag. 0.10E+00   13.1     0.00000139       -47.1655371778 -3.22E-05
     6 Broy./Diag. 0.10E+00   13.1     0.00000127       -47.1654850866  5.21E-05
     7 Broy./Diag. 0.10E+00   13.1     0.00000145       -47.1654149523  7.01E-05
     8 Broy./Diag. 0.10E+00   13.1     0.00000146       -47.1653391321  7.58E-05
     9 Broy./Diag. 0.10E+00   13.1     0.00000179       -47.1652459182  9.32E-05
    10 Broy./Diag. 0.10E+00   13.1     0.00000120       -47.1651726694  7.32E-05
    11 Broy./Diag. 0.10E+00   13.1     0.00000175       -47.1651218289  5.08E-05
    12 Broy./Diag. 0.10E+00   13.1     0.00000043       -47.1650908273  3.10E-05
    13 Broy./Diag. 0.10E+00   13.1     0.00000018       -47.1650724756  1.84E-05

  *** SCF run converged in    13 steps ***


  Electronic density on regular grids:         -8.9999957371        0.0000042629
  Core density on regular grids:                9.0000000000       -0.0000000000
  Total charge density on r-space grids:        0.0000042629
  Total charge density g-space grids:           0.0000042629

  Overlap energy of the core charge distribution:               0.00000000000000
  Self energy of the core charge distribution:                -96.60649019442629
  Core Hamiltonian energy:                                     29.76215687160075
  Hartree energy:                                              26.73468805343125
  Exchange-correlation energy:                                 -7.05541837163038
  Dispersion energy:                                           -0.00000883455364
  Electronic entropic energy:                                  -0.00000000000000
  Fermi energy:                                                -0.06765502261832

  Total energy:                                               -47.16507247557831

  outer SCF iter =    3 RMS gradient =   0.18E-06 energy =        -47.1650724756
  outer SCF loop converged in   3 iterations or  213 steps


  Integrated absolute spin density  :                               1.0000482152
  WARNING: S**2 computation does not yet treat fractional occupied orbitals

 *** WARNING in qs_loc_utils.F:1500 :: User requested the calculation of ***
 *** the localized wavefunction but the section LOCALIZE was not         ***
 *** specified. Localization will not be performed!                      ***


 -------------------------------------------------------------------------------
 -                                                                             -
 -  BSSE CALCULATION         FRAGMENT CONF: 11        FRAGMENT SUBCONF: 10     -
 -                           CHARGE =     0           MULTIPLICITY =     0     -
 -                                                                             -
 -                 ATOM INDEX                              ATOM NAME           -
 -                 ----------                              ---------           -
 -                      1                                   C                  -
 -                      2                                   C                  -
 -                      3                                   C                  -
 -                      4                                   C                  -
 -                      5                                   C                  -
 -                      6                                   C                  -
 -                      7                                   C                  -
 -                      8                                   C                  -
 -                      9                                   C                  -
 -                     10                                   C                  -
 -                     11                                   C                  -
 -                     12                                   C                  -
 -                     13                                   C                  -
 -                     14                                   C                  -
 -                     15                                   C                  -
 -                     16                                   C                  -
 -                     17                                   C                  -
 -                     18                                   C                  -
 -                     19                                   C                  -
 -                     20                                   C                  -
 -                     21                                   C                  -
 -                     22                                   C                  -
 -                     23                                   C                  -
 -                     24                                   C                  -
 -                     25                                   C                  -
 -                     26                                   C                  -
 -                     27                                   C                  -
 -                     28                                   C                  -
 -                     29                                   C                  -
 -                     30                                   C                  -
 -                     31                                   C                  -
 -                     32                                   C                  -
 -                     33                                   C                  -
 -                     34                                   C                  -
 -                     35                                   C                  -
 -                     36                                   C                  -
 -                     37                                   C                  -
 -                     38                                   C                  -
 -                     39                                   C                  -
 -                     40                                   C                  -
 -                     41                                   C                  -
 -                     42                                   C                  -
 -                     43                                   Na_ghost           -
 -------------------------------------------------------------------------------

 *******************************************************************************
 *******************************************************************************
 **                                                                           **
 **     #####                         ##              ##                      **
 **    ##   ##            ##          ##              ##                      **
 **   ##     ##                       ##            ######                    **
 **   ##     ##  ##   ##  ##   #####  ##  ##   ####   ##    #####    #####    **
 **   ##     ##  ##   ##  ##  ##      ## ##   ##      ##   ##   ##  ##   ##   **
 **   ##  ## ##  ##   ##  ##  ##      ####     ###    ##   ######   ######    **
 **    ##  ###   ##   ##  ##  ##      ## ##      ##   ##   ##       ##        **
 **     #######   #####   ##   #####  ##  ##  ####    ##    #####   ##        **
 **           ##                                                    ##        **
 **                                                                           **
 **                                                ... make the atoms dance   **
 **                                                                           **
 **            Copyright (C) by CP2K developers group (2000-2022)             **
 **                      J. Chem. Phys. 152, 194103 (2020)                    **
 **                                                                           **
 *******************************************************************************


 TOTAL NUMBERS AND MAXIMUM NUMBERS

  Total number of            - Atomic kinds:                                   2
                             - Atoms:                                         43
                             - Shell sets:                                    43
                             - Shells:                                       215
                             - Primitive Cartesian functions:                217
                             - Cartesian basis functions:                    597
                             - Spherical basis functions:                    555

  Maximum angular momentum of- Orbital basis functions:                        2
                             - Local part of the GTH pseudopotential:          2
                             - Non-local part of the GTH pseudopotential:      0


 SCF PARAMETERS         Density guess:                                    ATOMIC
                        --------------------------------------------------------
                        max_scf:                                             100
                        max_scf_history:                                       0
                        max_diis:                                              4
                        --------------------------------------------------------
                        eps_scf:                                        3.00E-07
                        eps_scf_history:                                0.00E+00
                        eps_diis:                                       1.00E-01
                        eps_eigval:                                     1.00E-05
                        --------------------------------------------------------
                        level_shift [a.u.]:                             0.000000
                        added MOs                                       100  100
                        --------------------------------------------------------
                        Mixing method:                            BROYDEN_MIXING
                                                charge density mixing in g-space
                        --------------------------------------------------------
                        Smear method:                                FERMI_DIRAC
                        Electronic temperature [K]:                        300.0
                        Electronic temperature [a.u.]:                  9.50E-04
                        Accuracy threshold:                             1.00E-10
                        --------------------------------------------------------
                        Outer loop SCF in use 
                        No variables optimised in outer loop
                        eps_scf                                         1.00E-06
                        max_scf                                              150
                        DIIS optimization
                        DIIS buffer length                                     3
                        step_size                                       5.00E-01

 Spin 1

 Number of electrons:                                                         84
 Number of occupied orbitals:                                                 84
 Number of molecular orbitals:                                               184

 Spin 2

 Number of electrons:                                                         84
 Number of occupied orbitals:                                                 84
 Number of molecular orbitals:                                               184

 Number of orbital functions:                                                555
 Number of independent orbital functions:                                    555

 Extrapolation method: initial_guess


 SCF WAVEFUNCTION OPTIMIZATION

  Step     Update method      Time    Convergence         Total energy    Change
  ------------------------------------------------------------------------------
     1 NoMix/Diag. 0.10E+00    3.8     0.46914442      -236.3673047444 -2.36E+02
     2 Broy./Diag. 0.10E+00    7.9     0.00519117      -227.2063900430  9.16E+00
     3 Broy./Diag. 0.10E+00    8.2     0.05031934      -234.0003334879 -6.79E+00
     4 Broy./Diag. 0.10E+00    8.3     0.00341451      -237.3771411074 -3.38E+00
     5 Broy./Diag. 0.10E+00    8.5     0.01713435      -237.5922873293 -2.15E-01
     6 Broy./Diag. 0.10E+00    8.7     0.00093540      -237.8225190938 -2.30E-01
     7 Broy./Diag. 0.10E+00    8.9     0.00539536      -237.8972370611 -7.47E-02
     8 Broy./Diag. 0.10E+00    9.2     0.00023248      -238.0051330562 -1.08E-01
     9 Broy./Diag. 0.10E+00    9.5     0.00111779      -238.0848746978 -7.97E-02
    10 Broy./Diag. 0.10E+00    9.9     0.00008481      -238.1551617199 -7.03E-02
    11 Broy./Diag. 0.10E+00   10.3     0.00079292      -238.1780576663 -2.29E-02
    12 Broy./Diag. 0.10E+00   10.7     0.00003475      -238.2093777677 -3.13E-02
    13 Broy./Diag. 0.10E+00   11.2     0.00026997      -238.2005152523  8.86E-03
    14 Broy./Diag. 0.10E+00   11.7     0.00003103      -238.2101184160 -9.60E-03
    15 Broy./Diag. 0.10E+00   12.2     0.00017855      -238.2105648812 -4.46E-04
    16 Broy./Diag. 0.10E+00   12.8     0.00004111      -238.2167891047 -6.22E-03
    17 Broy./Diag. 0.10E+00   13.4     0.00014159      -238.2209306243 -4.14E-03
    18 Broy./Diag. 0.10E+00   13.4     0.00004281      -238.2250738482 -4.14E-03
    19 Broy./Diag. 0.10E+00   13.4     0.00008374      -238.2278651638 -2.79E-03
    20 Broy./Diag. 0.10E+00   13.4     0.00002328      -238.2293622488 -1.50E-03
    21 Broy./Diag. 0.10E+00   13.4     0.00006757      -238.2287650555  5.97E-04
    22 Broy./Diag. 0.10E+00   13.4     0.00001043      -238.2292317892 -4.67E-04
    23 Broy./Diag. 0.10E+00   13.4     0.00004466      -238.2289374270  2.94E-04
    24 Broy./Diag. 0.10E+00   13.4     0.00000363      -238.2295350036 -5.98E-04
    25 Broy./Diag. 0.10E+00   13.4     0.00001739      -238.2295183396  1.67E-05
    26 Broy./Diag. 0.10E+00   13.4     0.00000540      -238.2296031811 -8.48E-05
    27 Broy./Diag. 0.10E+00   13.5     0.00001112      -238.2296562180 -5.30E-05
    28 Broy./Diag. 0.10E+00   13.4     0.00000864      -238.2298887253 -2.33E-04
    29 Broy./Diag. 0.10E+00   13.4     0.00000406      -238.2301512700 -2.63E-04
    30 Broy./Diag. 0.10E+00   13.5     0.00000392      -238.2301367080  1.46E-05
    31 Broy./Diag. 0.10E+00   13.5     0.00000146      -238.2300608573  7.59E-05
    32 Broy./Diag. 0.10E+00   13.4     0.00000443      -238.2299614431  9.94E-05
    33 Broy./Diag. 0.10E+00   13.4     0.00000075      -238.2299441658  1.73E-05
    34 Broy./Diag. 0.10E+00   13.4     0.00000311      -238.2298660283  7.81E-05
    35 Broy./Diag. 0.10E+00   13.4     0.00000040      -238.2298093202  5.67E-05
    36 Broy./Diag. 0.10E+00   13.4     0.00000182      -238.2298511533 -4.18E-05
    37 Broy./Diag. 0.10E+00   13.5     0.00000033      -238.2298822088 -3.11E-05
    38 Broy./Diag. 0.10E+00   13.4     0.00000105      -238.2299253110 -4.31E-05
    39 Broy./Diag. 0.10E+00   13.5     0.00000012      -238.2299447675 -1.95E-05

  *** SCF run converged in    39 steps ***


  Electronic density on regular grids:       -167.9999999999        0.0000000001
  Core density on regular grids:              167.9999999999       -0.0000000001
  Total charge density on r-space grids:       -0.0000000001
  Total charge density g-space grids:          -0.0000000001

  Overlap energy of the core charge distribution:               0.00004450313876
  Self energy of the core charge distribution:               -560.07033292413882
  Core Hamiltonian energy:                                    175.06083825997629
  Hartree energy:                                             219.62901574569190
  Exchange-correlation energy:                                -72.81162436717710
  Dispersion energy:                                           -0.03788598501191
  Electronic entropic energy:                                  -0.00000000000306
  Fermi energy:                                                -0.16914588414795

  Total energy:                                              -238.22994476752396

  outer SCF iter =    1 RMS gradient =   0.12E-06 energy =       -238.2299447675
  outer SCF loop converged in   1 iterations or   39 steps


  Integrated absolute spin density  :                               0.0000000203
  WARNING: S**2 computation does not yet treat fractional occupied orbitals

 *** WARNING in qs_loc_utils.F:1500 :: User requested the calculation of ***
 *** the localized wavefunction but the section LOCALIZE was not         ***
 *** specified. Localization will not be performed!                      ***


 -------------------------------------------------------------------------------
 -                                                                             -
 -  BSSE CALCULATION         FRAGMENT CONF: 11        FRAGMENT SUBCONF: 01     -
 -                           CHARGE =     0           MULTIPLICITY =     0     -
 -                                                                             -
 -                 ATOM INDEX                              ATOM NAME           -
 -                 ----------                              ---------           -
 -                      1                                   C_ghost            -
 -                      2                                   C_ghost            -
 -                      3                                   C_ghost            -
 -                      4                                   C_ghost            -
 -                      5                                   C_ghost            -
 -                      6                                   C_ghost            -
 -                      7                                   C_ghost            -
 -                      8                                   C_ghost            -
 -                      9                                   C_ghost            -
 -                     10                                   C_ghost            -
 -                     11                                   C_ghost            -
 -                     12                                   C_ghost            -
 -                     13                                   C_ghost            -
 -                     14                                   C_ghost            -
 -                     15                                   C_ghost            -
 -                     16                                   C_ghost            -
 -                     17                                   C_ghost            -
 -                     18                                   C_ghost            -
 -                     19                                   C_ghost            -
 -                     20                                   C_ghost            -
 -                     21                                   C_ghost            -
 -                     22                                   C_ghost            -
 -                     23                                   C_ghost            -
 -                     24                                   C_ghost            -
 -                     25                                   C_ghost            -
 -                     26                                   C_ghost            -
 -                     27                                   C_ghost            -
 -                     28                                   C_ghost            -
 -                     29                                   C_ghost            -
 -                     30                                   C_ghost            -
 -                     31                                   C_ghost            -
 -                     32                                   C_ghost            -
 -                     33                                   C_ghost            -
 -                     34                                   C_ghost            -
 -                     35                                   C_ghost            -
 -                     36                                   C_ghost            -
 -                     37                                   C_ghost            -
 -                     38                                   C_ghost            -
 -                     39                                   C_ghost            -
 -                     40                                   C_ghost            -
 -                     41                                   C_ghost            -
 -                     42                                   C_ghost            -
 -                     43                                   Na                 -
 -------------------------------------------------------------------------------

 *******************************************************************************
 *******************************************************************************
 **                                                                           **
 **     #####                         ##              ##                      **
 **    ##   ##            ##          ##              ##                      **
 **   ##     ##                       ##            ######                    **
 **   ##     ##  ##   ##  ##   #####  ##  ##   ####   ##    #####    #####    **
 **   ##     ##  ##   ##  ##  ##      ## ##   ##      ##   ##   ##  ##   ##   **
 **   ##  ## ##  ##   ##  ##  ##      ####     ###    ##   ######   ######    **
 **    ##  ###   ##   ##  ##  ##      ## ##      ##   ##   ##       ##        **
 **     #######   #####   ##   #####  ##  ##  ####    ##    #####   ##        **
 **           ##                                                    ##        **
 **                                                                           **
 **                                                ... make the atoms dance   **
 **                                                                           **
 **            Copyright (C) by CP2K developers group (2000-2022)             **
 **                      J. Chem. Phys. 152, 194103 (2020)                    **
 **                                                                           **
 *******************************************************************************


 TOTAL NUMBERS AND MAXIMUM NUMBERS

  Total number of            - Atomic kinds:                                   2
                             - Atoms:                                         43
                             - Shell sets:                                    43
                             - Shells:                                       215
                             - Primitive Cartesian functions:                217
                             - Cartesian basis functions:                    597
                             - Spherical basis functions:                    555

  Maximum angular momentum of- Orbital basis functions:                        2
                             - Local part of the GTH pseudopotential:          2
                             - Non-local part of the GTH pseudopotential:      1


 SCF PARAMETERS         Density guess:                                    ATOMIC
                        --------------------------------------------------------
                        max_scf:                                             100
                        max_scf_history:                                       0
                        max_diis:                                              4
                        --------------------------------------------------------
                        eps_scf:                                        3.00E-07
                        eps_scf_history:                                0.00E+00
                        eps_diis:                                       1.00E-01
                        eps_eigval:                                     1.00E-05
                        --------------------------------------------------------
                        level_shift [a.u.]:                             0.000000
                        added MOs                                       100  100
                        --------------------------------------------------------
                        Mixing method:                            BROYDEN_MIXING
                                                charge density mixing in g-space
                        --------------------------------------------------------
                        Smear method:                                FERMI_DIRAC
                        Electronic temperature [K]:                        300.0
                        Electronic temperature [a.u.]:                  9.50E-04
                        Accuracy threshold:                             1.00E-10
                        --------------------------------------------------------
                        Outer loop SCF in use 
                        No variables optimised in outer loop
                        eps_scf                                         1.00E-06
                        max_scf                                              150
                        DIIS optimization
                        DIIS buffer length                                     3
                        step_size                                       5.00E-01

 Spin 1

 Number of electrons:                                                          5
 Number of occupied orbitals:                                                  5
 Number of molecular orbitals:                                               105

 Spin 2

 Number of electrons:                                                          4
 Number of occupied orbitals:                                                  4
 Number of molecular orbitals:                                               104

 Number of orbital functions:                                                555
 Number of independent orbital functions:                                    555

 Extrapolation method: initial_guess


 SCF WAVEFUNCTION OPTIMIZATION

  Step     Update method      Time    Convergence         Total energy    Change
  ------------------------------------------------------------------------------
     1 NoMix/Diag. 0.10E+00    3.7     0.42783185       -47.1709848169 -4.72E+01
     2 Broy./Diag. 0.10E+00    8.2     0.00698772       -47.1315461931  3.94E-02
     3 Broy./Diag. 0.10E+00    8.6     0.02176009       -47.1739914850 -4.24E-02
     4 Broy./Diag. 0.10E+00    8.7     0.00032940       -47.1642151889  9.78E-03
     5 Broy./Diag. 0.10E+00    8.8     0.13248489       -47.1761466522 -1.19E-02
     6 Broy./Diag. 0.10E+00    9.1     0.02234230       -46.6876389318  4.89E-01
     7 Broy./Diag. 0.10E+00    9.3     0.00614467       -46.6383687775  4.93E-02
     8 Broy./Diag. 0.10E+00    9.5     0.00840483       -46.6461476596 -7.78E-03
     9 Broy./Diag. 0.10E+00    9.9     0.03875870       -46.6679691279 -2.18E-02
    10 Broy./Diag. 0.10E+00   10.2     0.01634703       -46.7530973758 -8.51E-02
    11 Broy./Diag. 0.10E+00   10.6     0.01112609       -46.8027908186 -4.97E-02
    12 Broy./Diag. 0.10E+00   11.0     0.02578202       -46.8761815577 -7.34E-02
    13 Broy./Diag. 0.10E+00   11.5     0.02201314       -46.9909821944 -1.15E-01
    14 Broy./Diag. 0.10E+00   12.0     0.00343896       -47.0763948670 -8.54E-02
    15 Broy./Diag. 0.10E+00   12.5     0.01280203       -47.0589176409  1.75E-02
    16 Broy./Diag. 0.10E+00   13.1     0.01226684       -47.1245347861 -6.56E-02
    17 Broy./Diag. 0.10E+00   13.8     0.00173439       -47.1833658211 -5.88E-02
    18 Broy./Diag. 0.10E+00   13.8     0.00070255       -47.1814721270  1.89E-03
    19 Broy./Diag. 0.10E+00   13.8     0.00375022       -47.1860805605 -4.61E-03
    20 Broy./Diag. 0.10E+00   13.8     0.00788557       -47.2054017060 -1.93E-02
    21 Broy./Diag. 0.10E+00   13.8     0.00083311       -47.2452315636 -3.98E-02
    22 Broy./Diag. 0.10E+00   13.7     0.00023368       -47.2517859777 -6.55E-03
    23 Broy./Diag. 0.10E+00   13.8     0.01002167       -47.2289998558  2.28E-02
    24 Broy./Diag. 0.10E+00   13.7     0.00097947       -47.1831689412  4.58E-02
    25 Broy./Diag. 0.10E+00   13.8     0.00175242       -47.1934402203 -1.03E-02
    26 Broy./Diag. 0.10E+00   13.8     0.00051716       -47.2159002058 -2.25E-02
    27 Broy./Diag. 0.10E+00   13.8     0.00141293       -47.2302868055 -1.44E-02
    28 Broy./Diag. 0.10E+00   13.7     0.00175203       -47.2287008733  1.59E-03
    29 Broy./Diag. 0.10E+00   13.7     0.00050459       -47.2228522336  5.85E-03
    30 Broy./Diag. 0.10E+00   13.8     0.00029020       -47.2208864439  1.97E-03
    31 Broy./Diag. 0.10E+00   13.8     0.00148330       -47.2180120909  2.87E-03
    32 Broy./Diag. 0.10E+00   13.8     0.00235950       -47.2218270209 -3.81E-03
    33 Broy./Diag. 0.10E+00   13.8     0.00118535       -47.2284382258 -6.61E-03
    34 Broy./Diag. 0.10E+00   13.8     0.00409971       -47.2487369469 -2.03E-02
    35 Broy./Diag. 0.10E+00   13.7     0.00040293       -47.2718035314 -2.31E-02
    36 Broy./Diag. 0.10E+00   13.7     0.00084429       -47.2654845909  6.32E-03
    37 Broy./Diag. 0.10E+00   13.8     0.00093832       -47.2697169830 -4.23E-03
    38 Broy./Diag. 0.10E+00   13.8     0.00364391       -47.2822209699 -1.25E-02
    39 Broy./Diag. 0.10E+00   13.8     0.00115537       -47.2966336988 -1.44E-02
    40 Broy./Diag. 0.10E+00   13.8     0.00026891       -47.3070525585 -1.04E-02
    41 Broy./Diag. 0.10E+00   13.8     0.00045762       -47.3049320999  2.12E-03
    42 Broy./Diag. 0.10E+00   13.7     0.00035640       -47.3011459749  3.79E-03
[...]
    60 Broy./Diag. 0.10E+00   13.5     0.00000085      -285.4647340084  1.36E-07
    61 Broy./Diag. 0.10E+00   13.5     0.00000027      -285.4647329394  1.07E-06

  *** SCF run converged in    61 steps ***


  Electronic density on regular grids:       -176.9999957252        0.0000042748
  Core density on regular grids:              176.9999999999       -0.0000000001
  Total charge density on r-space grids:        0.0000042747
  Total charge density g-space grids:           0.0000042747

  Overlap energy of the core charge distribution:               0.00004450313876
  Self energy of the core charge distribution:               -656.67682311856515
  Core Hamiltonian energy:                                    205.17361392276825
  Hartree energy:                                             246.15023154912805
  Exchange-correlation energy:                                -80.07183533412467
  Dispersion energy:                                           -0.03982419390240
  Electronic entropic energy:                                  -0.00014026591746
  Fermi energy:                                                -0.13037106713907

  Total energy:                                              -285.46473293941619

  outer SCF iter =    2 RMS gradient =   0.27E-06 energy =       -285.4647329394
  outer SCF loop converged in   2 iterations or  161 steps


  Integrated absolute spin density  :                               1.3214984802
  WARNING: S**2 computation does not yet treat fractional occupied orbitals

 *** WARNING in qs_loc_utils.F:1500 :: User requested the calculation of ***
 *** the localized wavefunction but the section LOCALIZE was not         ***
 *** specified. Localization will not be performed!                      ***


 -------------------------------------------------------------------------------
 -                                                                             -
 -                                 BSSE RESULTS                                -
 -                                                                             -
 -                 CP-corrected Total energy:     -285.459063                  -
 -                                                                             -
 -                       1-body contribution:     -238.224459                  -
 -                       1-body contribution:      -47.165072                  -
 -                                                                             -
 -                       2-body contribution:       -0.069531                  -
 -                 BSSE-free interaction energy:       -0.069531               -
 -------------------------------------------------------------------------------

 -------------------------------------------------------------------------------
 -                                                                             -
 -                                DBCSR STATISTICS                             -
 -                                                                             -
 -------------------------------------------------------------------------------
 COUNTER                                    TOTAL       BLAS       SMM       ACC
 flops     9 x     9 x     8               259200     100.0%      0.0%      0.0%
 flops     9 x     9 x    56               707616     100.0%      0.0%      0.0%
 flops     9 x     9 x     9               912708     100.0%      0.0%      0.0%
 flops     9 x     9 x    60              1564920     100.0%      0.0%      0.0%
 flops     9 x     9 x    61              1591002     100.0%      0.0%      0.0%
 flops     9 x     9 x    64              4147200     100.0%      0.0%      0.0%
 flops     9 x    13 x     8              7862400     100.0%      0.0%      0.0%
 flops    13 x     9 x     8              7862400     100.0%      0.0%      0.0%
 flops     9 x    13 x     9              8845200     100.0%      0.0%      0.0%
 flops    13 x     9 x     9              8845200     100.0%      0.0%      0.0%
 flops     9 x     9 x    32             10368000     100.0%      0.0%      0.0%
 flops     9 x    13 x    56             21464352     100.0%      0.0%      0.0%
 flops    13 x     9 x    56             21464352     100.0%      0.0%      0.0%
 flops     9 x    13 x    60             47469240     100.0%      0.0%      0.0%
 flops    13 x     9 x    60             47469240     100.0%      0.0%      0.0%
 flops     9 x    13 x    61             48260394     100.0%      0.0%      0.0%
 flops    13 x     9 x    61             48260394     100.0%      0.0%      0.0%
 flops     9 x    13 x    64            125798400     100.0%      0.0%      0.0%
 flops    13 x     9 x    64            125798400     100.0%      0.0%      0.0%
 flops     9 x    13 x    32            314496000     100.0%      0.0%      0.0%
 flops    13 x     9 x    32            314496000     100.0%      0.0%      0.0%
 flops    13 x    13 x     8            488342400     100.0%      0.0%      0.0%
 flops    13 x    13 x     9            549385200     100.0%      0.0%      0.0%
 flops    13 x    13 x    56           2666349504     100.0%      0.0%      0.0%
 flops    13 x    13 x    60           2948367240     100.0%      0.0%      0.0%
 flops    13 x    13 x    61           2997506694     100.0%      0.0%      0.0%
 flops    13 x    13 x    64           9337106688     100.0%      0.0%      0.0%
 flops    13 x    13 x    32          21057324288     100.0%      0.0%      0.0%
 flops inhomo. stacks                           0       0.0%      0.0%      0.0%
 flops total                        41.212325E+09     100.0%      0.0%      0.0%
 flops max/rank                      2.926832E+09     100.0%      0.0%      0.0%
 matmuls inhomo. stacks                         0       0.0%      0.0%      0.0%
 matmuls total                            3309362     100.0%      0.0%      0.0%
 number of processed stacks                 82218     100.0%      0.0%      0.0%
 average stack size                                    40.3       0.0       0.0
 marketing flops                    27.411565E+09
 -------------------------------------------------------------------------------
 # multiplications                           1304
 max memory usage/rank               4.182032E+09
 # max total images/rank                        1
 # max 3D layers                                1
 # MPI messages exchanged                  125184
 MPI messages size (bytes):
  total size                         3.490651E+09
  min size                           0.000000E+00
  max size                          73.216000E+03
  average size                      27.884164E+03
 MPI breakdown and total messages size (bytes):
             size <=      128               38340                        0
       128 < size <=     8192                2556                  1656288
      8192 < size <=    32768                9600                 90576000
     32768 < size <=   131072               74688               3398418576
    131072 < size <=  4194304                   0                        0
   4194304 < size <= 16777216                   0                        0
  16777216 < size                               0                        0
 -------------------------------------------------------------------------------
 -                                                                             -
 -                      DBCSR MESSAGE PASSING PERFORMANCE                      -
 -                                                                             -
 -------------------------------------------------------------------------------
 ROUTINE             CALLS      AVE VOLUME [Bytes]
 MP_Bcast               29                     12.
 MP_Allreduce         9213                      8.
 MP_Alltoall         36572                  32316.
 MP_ISend            20864                  12075.
 MP_IRecv            20864                   9433.
 -------------------------------------------------------------------------------

 -------------------------------------------------------------------------------
 -                                                                             -
 -                                DBM STATISTICS                               -
 -                                                                             -
 -------------------------------------------------------------------------------
    M  x    N  x    K                                          COUNT     PERCENT
 -------------------------------------------------------------------------------

 -------------------------------------------------------------------------------
 -                                                                             -
 -                                GRID STATISTICS                              -
 -                                                                             -
 -------------------------------------------------------------------------------
 LP    KERNEL             BACKEND                              COUNT     PERCENT
 4     collocate ortho    REF                               13825144      48.34%
 4     integrate ortho    REF                               13700312      47.91%
 3     collocate ortho    REF                                 474734       1.66%
 3     integrate ortho    REF                                 471200       1.65%
 2     collocate ortho    REF                                  62934       0.22%
 2     integrate ortho    REF                                  62526       0.22%
 0     collocate general  REF                                   2064       0.01%
 -------------------------------------------------------------------------------

 MEMORY| Estimated peak process memory [MiB]                                3989

 -------------------------------------------------------------------------------
 -                                                                             -
 -                         MESSAGE PASSING PERFORMANCE                         -
 -                                                                             -
 -------------------------------------------------------------------------------

 ROUTINE             CALLS      AVE VOLUME [Bytes]
 MP_Group               24
 MP_Bcast             2987                 320594.
 MP_Allreduce        16824                   1552.
 MP_Sync              2632
 MP_Alltoall         16417               61767626.
 MP_SendRecv         55068                 849700.
 MP_ISendRecv        39120                 492480.
 MP_Wait            159663
 MP_comm_split        1304
 MP_ISend           104820                1194469.
 MP_IRecv           104820                1194399.
 MP_Recv               234                 108946.
 -------------------------------------------------------------------------------


 -------------------------------------------------------------------------------
 -                                                                             -
 -                           R E F E R E N C E S                               -
 -                                                                             -
 -------------------------------------------------------------------------------
 
 CP2K version 2023.1, the CP2K developers group (2023).
 CP2K is freely available from https://www.cp2k.org/ .

 Kuehne,Thomas D.; Iannuzzi,Marcella; Del Ben,Mauro;
 Rybkin,Vladimir V.; Seewald,Patrick; Stein,Frederick; Laino,Teodoro;
 Khaliullin,Rustam Z.; Schuett,Ole; Schiffmann,Florian; Golze,Dorothea;
 Wilhelm,Jan; Chulkov,Sergey; Bani-Hashemian,Mohammad Hossein;
 Weber,Valery; Borstnik,Urban; Taillefumier,Mathieu;
 Jakobovits,Alice Shoshana; Lazzaro,Alfio; Pabst,Hans; Mueller,Tiziano;
 Schade,Robert; Guidon,Manuel; Andermatt,Samuel; Holmberg,Nico;
 Schenter,Gregory K.; Hehn,Anna; Bussy,Augustin; Belleflamme,Fabian;
 Tabacchi,Gloria; Gloess,Andreas; Lass,Michael; Bethune,Iain;
 Mundy,Christopher J.; Plessl,Christian; Watkins,Matt;
 VandeVondele,Joost; Krack,Matthias; Hutter,Juerg. 
 The Journal of Chemical Physics, 152 (19), (2020). 
 CP2K: An electronic structure and molecular dynamics software package -
 Quickstep: Efficient and accurate electronic structure calculations.
 https://doi.org/10.1063/5.0007045

 Goerigk, Lars; Hansen, Andreas; Bauer, Christoph; Ehrlich, Stephan;
 Najibi, Asim; Grimme, Stefan. , 19 (48), (2017). 
 A look at the density functional theory zoo with the advanced GMTKN55 database
 for general main group thermochemistry, kinetics and noncovalent interactions.
 https://doi.org/10.1039/C7CP04913G

 Schuett, Ole; Messmer, Peter; Hutter, Juerg; VandeVondele, Joost. 
 Electronic Structure Calculations on Graphics Processing Units, John
 Wiley & Sons, Ltd, 173-190 (2016). 
 GPU-Accelerated Sparse Matrix-Matrix Multiplication for
 Linear Scaling Density Functional Theory.
 https://doi.org/10.1002/9781118670712.ch8

 Borstnik, U; VandeVondele, J; Weber, V; Hutter, J. 
 PARALLEL COMPUTING, 40 (5-6), 47-58 (2014). 
 Sparse matrix multiplication: The distributed block-compressed sparse
 row library.
 https://doi.org/10.1016/j.parco.2014.03.012

 Hutter, J; Iannuzzi, M; Schiffmann, F; VandeVondele, J. 
 WIREs Comput Mol Sci., 4 (1), 15-25 (2014). 
 CP2K: atomistic simulations of condensed matter systems.
 https://doi.org/10.1002/wcms.1159

 Marek, A; Blum, V; Johanni, R; Havu, V; Lang, B; Auckenthaler, T;
 Heinecke, A; Bungartz, H; Lederer, H. 
 Journal of Physics: Condensed Matter, 26 (21), (2014). 
 The ELPA library: scalable parallel eigenvalue solutions for
 electronic structure
 theory and computational science.
 https://doi.org/10.1088/0953-8984/26/21/213201

 Grimme, S; Ehrlich, S; Goerigk, L. 
 JOURNAL OF COMPUTATIONAL CHEMISTRY, 32, 1456 (2011). 
 Effect of the damping function in dispersion corrected density functional theory.
 https://doi.org/10.1002/jcc.21759

 Grimme, S; Antony, J; Ehrlich, S; Krieg, H. 
 JOURNAL OF CHEMICAL PHYSICS, 132 (15), 154104 (2010). 
 A consistent and accurate ab initio parametrization of density
 functional dispersion correction (DFT-D) for the 94 elements H-Pu.
 https://doi.org/10.1063/1.3382344

 VandeVondele, J; Hutter, J. 
 JOURNAL OF CHEMICAL PHYSICS, 127 (11), 114105 (2007). 
 Gaussian basis sets for accurate calculations on molecular systems in
 gas and condensed phases.
 https://doi.org/10.1063/1.2770708

 Krack, M. 
 THEORETICAL CHEMISTRY ACCOUNTS, 114 (1-3), 145-152 (2005). 
 Pseudopotentials for H to Kr optimized for gradient-corrected
 exchange-correlation functionals.
 https://doi.org/10.1007/s00214-005-0655-y

 VandeVondele, J; Krack, M; Mohamed, F; Parrinello, M; Chassaing, T;
 Hutter, J. COMPUTER PHYSICS COMMUNICATIONS, 167 (2), 103-128 (2005). 
 QUICKSTEP: Fast and accurate density functional calculations using a
 mixed Gaussian and plane waves approach.
 https://doi.org/10.1016/j.cpc.2004.12.014

 Frigo, M; Johnson, SG. 
 PROCEEDINGS OF THE IEEE, 93 (2), 216-231 (2005). 
 The design and implementation of FFTW3.
 https://doi.org/10.1109/JPROC.2004.840301

 Hartwigsen, C; Goedecker, S; Hutter, J. 
 PHYSICAL REVIEW B, 58 (7), 3641-3662 (1998). 
 Relativistic separable dual-space Gaussian pseudopotentials from H to Rn.
 https://doi.org/10.1103/PhysRevB.58.3641

 Lippert, G; Hutter, J; Parrinello, M. 
 MOLECULAR PHYSICS, 92 (3), 477-487 (1997). 
 A hybrid Gaussian and plane wave density functional scheme.
 https://doi.org/10.1080/002689797170220

 Perdew, JP; Burke, K; Ernzerhof, M. 
 PHYSICAL REVIEW LETTERS, 77 (18), 3865-3868 (1996). 
 Generalized gradient approximation made simple.
 https://doi.org/10.1103/PhysRevLett.77.3865

 Goedecker, S; Teter, M; Hutter, J. 
 PHYSICAL REVIEW B, 54 (3), 1703-1710 (1996). 
 Separable dual-space Gaussian pseudopotentials.
 https://doi.org/10.1103/PhysRevB.54.1703


 -------------------------------------------------------------------------------
 -                                                                             -
 -                                T I M I N G                                  -
 -                                                                             -
 -------------------------------------------------------------------------------
 SUBROUTINE                       CALLS  ASD         SELF TIME        TOTAL TIME
                                MAXIMUM       AVERAGE  MAXIMUM  AVERAGE  MAXIMUM
 CP2K                                 1  1.0    2.723    3.223 8516.955 8516.961
 qs_energies                          5  2.0    0.062    0.238 8504.187 8504.638
 scf_env_do_scf                       5  3.0    0.002    0.005 8479.269 8479.326
 scf_env_do_scf_inner_loop          652  4.0    0.020    0.091 8479.260 8479.320
 gspace_mixing                      643  5.0   12.780   13.379 4284.549 4284.550
 broyden_mixing                     643  6.0 3541.350 3568.342 3575.990 3578.576
 pw_transfer                      15033  9.0    1.261    1.425 2671.218 2717.780
 fft_wrap_pw1pw2                  13729 10.0    0.187    0.206 2633.990 2680.220
 qs_ks_update_qs_env                652  5.0    0.004    0.005 2578.806 2578.820
 rebuild_ks_matrix                  652  6.0    0.002    0.002 2578.664 2578.673
 qs_ks_build_kohn_sham_matrix       652  7.0    0.105    0.116 2578.663 2578.671
 fft_wrap_pw1pw2_250               5875 10.2  229.749  254.163 2418.945 2473.136
 fft3d_ps                         13729 12.0 1072.245 1109.381 1917.008 1950.540
 qs_rho_update_rho_low              657  5.0    0.003    0.004 1557.241 1557.261
 calculate_rho_elec                1314  6.0   13.006   13.612 1557.238 1557.257
 density_rs2pw                     1314  7.0    0.128    0.141 1415.168 1450.473
 qs_vxc_create                      652  8.0    0.026    0.031 1174.673 1181.560
 xc_vxc_pw_create                   652  9.0  116.542  124.076 1174.647 1181.535
 sum_up_and_integrate               652  8.0   40.753   42.707  978.954  978.964
 integrate_v_rspace                1304  9.0    0.029    0.035  938.199  939.021
 potential_pw2rs                   1304 10.0    1.741    1.908  858.725  859.443
 xc_rho_set_and_dset_create         652 10.0   99.608  122.289  754.133  792.456
 x_to_yz                           7164 13.3  409.572  428.678  516.360  555.207
 xc_functional_eval                 652 11.0    0.012    0.017  412.246  438.605
 pbe_lsd_eval                       652 12.0  412.233  438.589  412.233  438.589
 rs_pw_transfer                   10477  9.5    0.218    0.237  372.705  399.534
 xc_pw_derive                      7824 11.0    0.041    0.047  325.762  353.250
 pw_nn_compose_r                   7824 12.0  262.806  265.313  325.721  353.210
 yz_to_x                           6565 12.6  233.655  251.943  327.936  347.364
 pw_scatter_p                      7164 12.3  252.933  264.526  252.933  264.526
 mp_alltoall_z22v                 13729 14.0  201.069  254.277  201.069  254.277
 pw_gather_p                       6565 11.6  215.284  244.247  215.284  244.247
 xc_pw_divergence                  1304 10.0    0.026    0.030  202.578  227.700
 fft_wrap_pw1pw2_90                2618 11.5   15.915   18.964  184.110  226.579
 pw_axpy                          13049  8.2  192.570  200.889  192.570  200.889
 -------------------------------------------------------------------------------

 The number of warnings for this run is : 8
 
 -------------------------------------------------------------------------------
  **** **** ******  **  PROGRAM ENDED AT                 2025-07-11 13:30:30.970
 ***** ** ***  *** **   PROGRAM RAN ON                                sebnode121
 **    ****   ******    PROGRAM RAN BY                                    luehrs
 ***** **    ** ** **   PROGRAM PROCESS ID                                630244
  **** **  *******  **  PROGRAM STOPPED IN /home/luehrs/PhD/Sodium_batteries/Sod
                                           ium-graphene-edge/Armchair_3/No_hydro
                                           gen
