 DBCSR| CPU Multiplication driver                                           BLAS (U)
 DBCSR| Multrec recursion limit                                              512 (U)
 DBCSR| Multiplication stack size                                           1000 (D)
 DBCSR| Maximum elements for images                                    UNLIMITED (U)
 DBCSR| Multiplicative factor virtual images                                   1 (U)
 DBCSR| Use multiplication densification                                       T (D)
 DBCSR| Multiplication size stacks                                             3 (U)
 DBCSR| Use memory pool for CPU allocation                                     F (U)
 DBCSR| Number of 3D layers                                               SINGLE (U)
 DBCSR| Use MPI memory allocation                                              F (U)
 DBCSR| Use RMA algorithm                                                      F (U)
 DBCSR| Use Communication thread                                               T (U)
 DBCSR| Communication thread load                                             87 (D)
 DBCSR| MPI: My process id                                                     0
 DBCSR| MPI: Number of processes                                              16
 DBCSR| OMP: Current number of threads                                         1
 DBCSR| OMP: Max number of threads                                             1
 DBCSR| Split modifier for TAS multiplication algorithm                  1.0E+00 (U)


  **** **** ******  **  PROGRAM STARTED AT               2025-09-03 13:31:40.396
 ***** ** ***  *** **   PROGRAM STARTED ON                            sebnode128
 **    ****   ******    PROGRAM STARTED BY                                luehrs
 ***** **    ** ** **   PROGRAM PROCESS ID                               2965782
  **** **  *******  **  PROGRAM STARTED IN /home/luehrs/PhD/Sodium_batteries/Sod
                                           ium-graphene-functional_groups/Alcoho
                                           l/Hydrogenated_edges

 CP2K| version string:                                       CP2K version 2023.1
 CP2K| source code revision number:                                  git:b888bd8
 CP2K| cp2kflags: omp libint fftw3 libxc elpa parallel scalapack spglib         
 CP2K| is freely available from                            https://www.cp2k.org/
 CP2K| Program compiled at                          Tue Jan 10 19:52:03 UTC 2023
 CP2K| Program compiled on                                            x86-ubc-01
 CP2K| Program compiled for                                Linux-x86_64-gfortran
 CP2K| Data directory path                                       /usr/share/cp2k
 CP2K| Input file name                                         input.zig-zag.inp

 GLOBAL| Force Environment number                                              1
 GLOBAL| Basis set file name                                      ./BASIS_MOLOPT
 GLOBAL| Potential file name                                    ./GTH_POTENTIALS
 GLOBAL| MM Potential file name                                     MM_POTENTIAL
 GLOBAL| Coordinate file name                         alcohol_sodium_relaxed.xyz
 GLOBAL| Method name                                                        CP2K
 GLOBAL| Project name                          alcohol_sodium_BSSE_PBE_UKS_FALSE
 GLOBAL| Run type                                                           BSSE
 GLOBAL| FFT library                                                       FFTW3
 GLOBAL| Diagonalization library                                            ELPA
 GLOBAL| DGEMM library                                                      BLAS
 GLOBAL| Minimum number of eigenvectors for ELPA usage                        16
 GLOBAL| Orthonormality check for eigenvectors                          DISABLED
 GLOBAL| Matrix multiplication library                                 ScaLAPACK
 GLOBAL| All-to-all communication in single precision                          F
 GLOBAL| FFTs using library dependent lengths                                  F
 GLOBAL| Grid backend                                                       AUTO
 GLOBAL| Global print level                                                  LOW
 GLOBAL| MPI I/O enabled                                                       T
 GLOBAL| Total number of message passing processes                            16
 GLOBAL| Number of threads for this process                                    1
 GLOBAL| This output is from process                                           0
 GLOBAL| Stack size for threads created by OpenMP (OMP_STACKSIZE)        default
 GLOBAL| CPU model name                          AMD EPYC 7513 32-Core Processor

 MEMORY| system memory details [Kb]
 MEMORY|                        rank 0           min           max       average
 MEMORY| MemTotal            131832292     131832292     131832292     131832292
 MEMORY| MemFree             127577280     127577280     127577280     127577280
 MEMORY| Buffers                162372        162372        162372        162372
 MEMORY| Cached                 311000        311000        311000        311000
 MEMORY| Slab                   779920        779920        779920        779920
 MEMORY| SReclaimable           135044        135044        135044        135044
 MEMORY| MemLikelyFree       128185696     128185696     128185696     128185696


 GENERATE|  Preliminary Number of Bonds generated:                             0
 GENERATE|  Achieved consistency in connectivity generation.

 *******************************************************************************
 *******************************************************************************
 **                                                                           **
 **     #####                         ##              ##                      **
 **    ##   ##            ##          ##              ##                      **
 **   ##     ##                       ##            ######                    **
 **   ##     ##  ##   ##  ##   #####  ##  ##   ####   ##    #####    #####    **
 **   ##     ##  ##   ##  ##  ##      ## ##   ##      ##   ##   ##  ##   ##   **
 **   ##  ## ##  ##   ##  ##  ##      ####     ###    ##   ######   ######    **
 **    ##  ###   ##   ##  ##  ##      ## ##      ##   ##   ##       ##        **
 **     #######   #####   ##   #####  ##  ##  ####    ##    #####   ##        **
 **           ##                                                    ##        **
 **                                                                           **
 **                                                ... make the atoms dance   **
 **                                                                           **
 **            Copyright (C) by CP2K developers group (2000-2022)             **
 **                      J. Chem. Phys. 152, 194103 (2020)                    **
 **                                                                           **
 *******************************************************************************


 TOTAL NUMBERS AND MAXIMUM NUMBERS

  Total number of            - Atomic kinds:                                   4
                             - Atoms:                                        130
                             - Shell sets:                                   130
                             - Shells:                                       618
                             - Primitive Cartesian functions:                652
                             - Cartesian basis functions:                   1671
                             - Spherical basis functions:                   1558

  Maximum angular momentum of- Orbital basis functions:                        2
                             - Local part of the GTH pseudopotential:          2
                             - Non-local part of the GTH pseudopotential:      1


 SCF PARAMETERS         Density guess:                                    ATOMIC
                        --------------------------------------------------------
                        max_scf:                                             100
                        max_scf_history:                                       0
                        max_diis:                                              4
                        --------------------------------------------------------
                        eps_scf:                                        3.00E-07
                        eps_scf_history:                                0.00E+00
                        eps_diis:                                       1.00E-01
                        eps_eigval:                                     1.00E-05
                        --------------------------------------------------------
                        level_shift [a.u.]:                             0.000000
                        added MOs                                       100    0
                        --------------------------------------------------------
                        Mixing method:                            BROYDEN_MIXING
                                                charge density mixing in g-space
                        --------------------------------------------------------
                        Smear method:                                FERMI_DIRAC
                        Electronic temperature [K]:                        300.0
                        Electronic temperature [a.u.]:                  9.50E-04
                        Accuracy threshold:                             1.00E-10
                        --------------------------------------------------------
                        Outer loop SCF in use 
                        No variables optimised in outer loop
                        eps_scf                                         1.00E-06
                        max_scf                                               30
                        DIIS optimization
                        DIIS buffer length                                     3
                        step_size                                       5.00E-01

 -------------------------------------------------------------------------------
 -                                                                             -
 -  BSSE CALCULATION         FRAGMENT CONF: 10        FRAGMENT SUBCONF: 10     -
 -                           CHARGE =     0           MULTIPLICITY =     0     -
 -                                                                             -
 -                 ATOM INDEX                              ATOM NAME           -
 -                 ----------                              ---------           -
 -                      1                                   C                  -
 -                      2                                   C                  -
 -                      3                                   C                  -
 -                      4                                   C                  -
 -                      5                                   C                  -
 -                      6                                   C                  -
 -                      7                                   C                  -
 -                      8                                   C                  -
 -                      9                                   C                  -
 -                     10                                   C                  -
 -                     11                                   C                  -
 -                     12                                   C                  -
 -                     13                                   C                  -
 -                     14                                   C                  -
 -                     15                                   C                  -
 -                     16                                   C                  -
 -                     17                                   C                  -
 -                     18                                   C                  -
 -                     19                                   C                  -
 -                     20                                   C                  -
 -                     21                                   C                  -
 -                     22                                   C                  -
 -                     23                                   C                  -
 -                     24                                   C                  -
 -                     25                                   C                  -
 -                     26                                   C                  -
 -                     27                                   C                  -
 -                     28                                   C                  -
 -                     29                                   C                  -
 -                     30                                   C                  -
 -                     31                                   C                  -
 -                     32                                   C                  -
 -                     33                                   C                  -
 -                     34                                   C                  -
 -                     35                                   C                  -
 -                     36                                   C                  -
 -                     37                                   C                  -
 -                     38                                   C                  -
 -                     39                                   C                  -
 -                     40                                   C                  -
 -                     41                                   C                  -
 -                     42                                   C                  -
 -                     43                                   C                  -
 -                     44                                   C                  -
 -                     45                                   C                  -
 -                     46                                   C                  -
 -                     47                                   C                  -
 -                     48                                   C                  -
 -                     49                                   C                  -
 -                     50                                   C                  -
 -                     51                                   C                  -
 -                     52                                   C                  -
 -                     53                                   C                  -
 -                     54                                   C                  -
 -                     55                                   C                  -
 -                     56                                   C                  -
 -                     57                                   C                  -
 -                     58                                   C                  -
 -                     59                                   C                  -
 -                     60                                   C                  -
 -                     61                                   C                  -
 -                     62                                   C                  -
 -                     63                                   C                  -
 -                     64                                   C                  -
 -                     65                                   C                  -
 -                     66                                   C                  -
 -                     67                                   C                  -
 -                     68                                   C                  -
 -                     69                                   C                  -
 -                     70                                   C                  -
 -                     71                                   C                  -
 -                     72                                   C                  -
 -                     73                                   C                  -
 -                     74                                   C                  -
 -                     75                                   C                  -
 -                     76                                   C                  -
 -                     77                                   C                  -
 -                     78                                   C                  -
 -                     79                                   C                  -
 -                     80                                   C                  -
 -                     81                                   C                  -
 -                     82                                   C                  -
 -                     83                                   C                  -
 -                     84                                   C                  -
 -                     85                                   C                  -
 -                     86                                   C                  -
 -                     87                                   C                  -
 -                     88                                   C                  -
 -                     89                                   C                  -
 -                     90                                   C                  -
 -                     91                                   C                  -
 -                     92                                   C                  -
 -                     93                                   C                  -
 -                     94                                   C                  -
 -                     95                                   C                  -
 -                     96                                   C                  -
 -                     97                                   C                  -
 -                     98                                   C                  -
 -                     99                                   C                  -
 -                    100                                   C                  -
 -                    101                                   C                  -
 -                    102                                   C                  -
 -                    103                                   C                  -
 -                    104                                   C                  -
 -                    105                                   C                  -
 -                    106                                   C                  -
 -                    107                                   C                  -
 -                    108                                   C                  -
 -                    109                                   C                  -
 -                    110                                   C                  -
 -                    111                                   C                  -
 -                    112                                   C                  -
 -                    113                                   H                  -
 -                    114                                   H                  -
 -                    115                                   H                  -
 -                    116                                   H                  -
 -                    117                                   H                  -
 -                    118                                   H                  -
 -                    119                                   H                  -
 -                    120                                   H                  -
 -                    121                                   H                  -
 -                    122                                   H                  -
 -                    123                                   H                  -
 -                    124                                   H                  -
 -                    125                                   H                  -
 -                    126                                   H                  -
 -                    127                                   H                  -
 -                    128                                   O                  -
 -                    129                                   H                  -
 -------------------------------------------------------------------------------

 *******************************************************************************
 *******************************************************************************
 **                                                                           **
 **     #####                         ##              ##                      **
 **    ##   ##            ##          ##              ##                      **
 **   ##     ##                       ##            ######                    **
 **   ##     ##  ##   ##  ##   #####  ##  ##   ####   ##    #####    #####    **
 **   ##     ##  ##   ##  ##  ##      ## ##   ##      ##   ##   ##  ##   ##   **
 **   ##  ## ##  ##   ##  ##  ##      ####     ###    ##   ######   ######    **
 **    ##  ###   ##   ##  ##  ##      ## ##      ##   ##   ##       ##        **
 **     #######   #####   ##   #####  ##  ##  ####    ##    #####   ##        **
 **           ##                                                    ##        **
 **                                                                           **
 **                                                ... make the atoms dance   **
 **                                                                           **
 **            Copyright (C) by CP2K developers group (2000-2022)             **
 **                      J. Chem. Phys. 152, 194103 (2020)                    **
 **                                                                           **
 *******************************************************************************


 TOTAL NUMBERS AND MAXIMUM NUMBERS

  Total number of            - Atomic kinds:                                   3
                             - Atoms:                                        129
                             - Shell sets:                                   129
                             - Shells:                                       613
                             - Primitive Cartesian functions:                645
                             - Cartesian basis functions:                   1662
                             - Spherical basis functions:                   1549

  Maximum angular momentum of- Orbital basis functions:                        2
                             - Local part of the GTH pseudopotential:          2
                             - Non-local part of the GTH pseudopotential:      0


 SCF PARAMETERS         Density guess:                                    ATOMIC
                        --------------------------------------------------------
                        max_scf:                                             100
                        max_scf_history:                                       0
                        max_diis:                                              4
                        --------------------------------------------------------
                        eps_scf:                                        3.00E-07
                        eps_scf_history:                                0.00E+00
                        eps_diis:                                       1.00E-01
                        eps_eigval:                                     1.00E-05
                        --------------------------------------------------------
                        level_shift [a.u.]:                             0.000000
                        added MOs                                       100    0
                        --------------------------------------------------------
                        Mixing method:                            BROYDEN_MIXING
                                                charge density mixing in g-space
                        --------------------------------------------------------
                        Smear method:                                FERMI_DIRAC
                        Electronic temperature [K]:                        300.0
                        Electronic temperature [a.u.]:                  9.50E-04
                        Accuracy threshold:                             1.00E-10
                        --------------------------------------------------------
                        Outer loop SCF in use 
                        No variables optimised in outer loop
                        eps_scf                                         1.00E-06
                        max_scf                                               30
                        DIIS optimization
                        DIIS buffer length                                     3
                        step_size                                       5.00E-01

 Number of electrons:                                                        470
 Number of occupied orbitals:                                                235
 Number of molecular orbitals:                                               335

 Number of orbital functions:                                               1549
 Number of independent orbital functions:                                   1549

 Extrapolation method: initial_guess


 SCF WAVEFUNCTION OPTIMIZATION

  Step     Update method      Time    Convergence         Total energy    Change
  ------------------------------------------------------------------------------
     1 NoMix/Diag. 0.10E+00    1.9     0.95247026      -656.4097735090 -6.56E+02
     2 Broy./Diag. 0.10E+00    2.9     0.06783855      -630.9973488088  2.54E+01
     3 Broy./Diag. 0.10E+00    3.0     0.26830197      -644.4584609397 -1.35E+01
     4 Broy./Diag. 0.10E+00    3.1     0.11531442      -656.5522596325 -1.21E+01
     5 Broy./Diag. 0.10E+00    3.1     0.09467089      -660.0574673851 -3.51E+00
     6 Broy./Diag. 0.10E+00    3.2     0.17346005      -661.1399408215 -1.08E+00
     7 Broy./Diag. 0.10E+00    3.2     0.03414705      -661.7099964509 -5.70E-01
     8 Broy./Diag. 0.10E+00    3.3     0.03765433      -661.8201337845 -1.10E-01
     9 Broy./Diag. 0.10E+00    3.4     0.02148652      -662.1785683670 -3.58E-01
    10 Broy./Diag. 0.10E+00    3.5     0.04070975      -662.3716706087 -1.93E-01
    11 Broy./Diag. 0.10E+00    3.5     0.00595694      -662.5898796787 -2.18E-01
    12 Broy./Diag. 0.10E+00    3.5     0.00735151      -662.7343348888 -1.44E-01
    13 Broy./Diag. 0.10E+00    3.5     0.00746295      -662.9253881986 -1.91E-01
    14 Broy./Diag. 0.10E+00    3.5     0.00468213      -663.0018557837 -7.65E-02
    15 Broy./Diag. 0.10E+00    3.5     0.00429030      -663.0638701306 -6.20E-02
    16 Broy./Diag. 0.10E+00    3.5     0.00310732      -663.1095928451 -4.57E-02
    17 Broy./Diag. 0.10E+00    3.5     0.00154800      -663.1320423461 -2.24E-02
    18 Broy./Diag. 0.10E+00    3.5     0.00250328      -663.1184233622  1.36E-02
    19 Broy./Diag. 0.10E+00    3.5     0.00068835      -663.1159680652  2.46E-03
    20 Broy./Diag. 0.10E+00    3.5     0.00155182      -663.1083213016  7.65E-03
    21 Broy./Diag. 0.10E+00    3.5     0.00062367      -663.1144385310 -6.12E-03
    22 Broy./Diag. 0.10E+00    3.5     0.00104184      -663.1199038347 -5.47E-03
    23 Broy./Diag. 0.10E+00    3.5     0.00063296      -663.1295262560 -9.62E-03
    24 Broy./Diag. 0.10E+00    3.5     0.00030135      -663.1351845955 -5.66E-03
    25 Broy./Diag. 0.10E+00    3.5     0.00042011      -663.1487878216 -1.36E-02
    26 Broy./Diag. 0.10E+00    3.5     0.00025837      -663.1632765435 -1.45E-02
    27 Broy./Diag. 0.10E+00    3.5     0.00012578      -663.1648615433 -1.58E-03
    28 Broy./Diag. 0.10E+00    3.5     0.00014168      -663.1617684764  3.09E-03
    29 Broy./Diag. 0.10E+00    3.5     0.00010194      -663.1602701232  1.50E-03
    30 Broy./Diag. 0.10E+00    3.5     0.00024376      -663.1582465463  2.02E-03
    31 Broy./Diag. 0.10E+00    3.5     0.00014247      -663.1570877612  1.16E-03
    32 Broy./Diag. 0.10E+00    3.5     0.00011397      -663.1559268302  1.16E-03
    33 Broy./Diag. 0.10E+00    3.5     0.00008253      -663.1562054017 -2.79E-04
    34 Broy./Diag. 0.10E+00    3.5     0.00003540      -663.1572229017 -1.02E-03
    35 Broy./Diag. 0.10E+00    3.5     0.00007977      -663.1581473650 -9.24E-04
    36 Broy./Diag. 0.10E+00    3.5     0.00001727      -663.1587719940 -6.25E-04
    37 Broy./Diag. 0.10E+00    3.5     0.00003835      -663.1594160468 -6.44E-04
    38 Broy./Diag. 0.10E+00    3.5     0.00000519      -663.1597938827 -3.78E-04
    39 Broy./Diag. 0.10E+00    3.5     0.00001851      -663.1594109947  3.83E-04
    40 Broy./Diag. 0.10E+00    3.5     0.00000736      -663.1593867727  2.42E-05
    41 Broy./Diag. 0.10E+00    3.5     0.00002101      -663.1592403716  1.46E-04
    42 Broy./Diag. 0.10E+00    3.5     0.00000393      -663.1592183025  2.21E-05
    43 Broy./Diag. 0.10E+00    3.5     0.00001450      -663.1592348082 -1.65E-05
    44 Broy./Diag. 0.10E+00    3.5     0.00000260      -663.1592838602 -4.91E-05
    45 Broy./Diag. 0.10E+00    3.5     0.00000464      -663.1593903562 -1.06E-04
    46 Broy./Diag. 0.10E+00    3.5     0.00000269      -663.1594235349 -3.32E-05
    47 Broy./Diag. 0.10E+00    3.5     0.00000442      -663.1594366169 -1.31E-05
    48 Broy./Diag. 0.10E+00    3.5     0.00000271      -663.1594242043  1.24E-05
    49 Broy./Diag. 0.10E+00    3.5     0.00000156      -663.1594070048  1.72E-05
    50 Broy./Diag. 0.10E+00    3.5     0.00000223      -663.1593908909  1.61E-05
    51 Broy./Diag. 0.10E+00    3.5     0.00000041      -663.1593709359  2.00E-05
    52 Broy./Diag. 0.10E+00    3.5     0.00000168      -663.1593453787  2.56E-05
    53 Broy./Diag. 0.10E+00    3.5     0.00000031      -663.1593460461 -6.67E-07
    54 Broy./Diag. 0.10E+00    3.5     0.00000089      -663.1593657146 -1.97E-05
    55 Broy./Diag. 0.10E+00    3.5     0.00000033      -663.1593781874 -1.25E-05
    56 Broy./Diag. 0.10E+00    3.5     0.00000065      -663.1593877931 -9.61E-06
    57 Broy./Diag. 0.10E+00    3.5     0.00000019      -663.1593913027 -3.51E-06

  *** SCF run converged in    57 steps ***


  Electronic density on regular grids:       -470.0000000501       -0.0000000501
  Core density on regular grids:              469.9999999997       -0.0000000003
  Total charge density on r-space grids:       -0.0000000504
  Total charge density g-space grids:          -0.0000000504

  Overlap energy of the core charge distribution:               0.00002442370124
  Self energy of the core charge distribution:              -1557.61467821861265
  Core Hamiltonian energy:                                    487.83933629403737
  Hartree energy:                                             611.56530108037032
  Exchange-correlation energy:                               -204.81356699893138
  Dispersion energy:                                           -0.13267663234834
  Electronic entropic energy:                                  -0.00313125117849
  Fermi energy:                                                -0.12594140930542

  Total energy:                                              -663.15939130269260

  outer SCF iter =    1 RMS gradient =   0.19E-06 energy =       -663.1593913027
  outer SCF loop converged in   1 iterations or   57 steps


 *** WARNING in qs_loc_utils.F:1500 :: User requested the calculation of ***
 *** the localized wavefunction but the section LOCALIZE was not         ***
 *** specified. Localization will not be performed!                      ***


 -------------------------------------------------------------------------------
 -                                                                             -
 -  BSSE CALCULATION         FRAGMENT CONF: 01        FRAGMENT SUBCONF: 01     -
 -                           CHARGE =     0           MULTIPLICITY =     0     -
 -                                                                             -
 -                 ATOM INDEX                              ATOM NAME           -
 -                 ----------                              ---------           -
 -                    130                                   Na                 -
 -------------------------------------------------------------------------------

 *******************************************************************************
 *******************************************************************************
 **                                                                           **
 **     #####                         ##              ##                      **
 **    ##   ##            ##          ##              ##                      **
 **   ##     ##                       ##            ######                    **
 **   ##     ##  ##   ##  ##   #####  ##  ##   ####   ##    #####    #####    **
 **   ##     ##  ##   ##  ##  ##      ## ##   ##      ##   ##   ##  ##   ##   **
 **   ##  ## ##  ##   ##  ##  ##      ####     ###    ##   ######   ######    **
 **    ##  ###   ##   ##  ##  ##      ## ##      ##   ##   ##       ##        **
 **     #######   #####   ##   #####  ##  ##  ####    ##    #####   ##        **
 **           ##                                                    ##        **
 **                                                                           **
 **                                                ... make the atoms dance   **
 **                                                                           **
 **            Copyright (C) by CP2K developers group (2000-2022)             **
 **                      J. Chem. Phys. 152, 194103 (2020)                    **
 **                                                                           **
 *******************************************************************************

 *** WARNING in qs_environment.F:1486 :: More added MOs requested than     ***
 *** available. The full set of unoccupied MOs will be used. Use           ***
 *** 'ADDED_MOS -1' to always use all available MOs and to get rid of this ***
 *** warning.                                                              ***



 TOTAL NUMBERS AND MAXIMUM NUMBERS

  Total number of            - Atomic kinds:                                   1
                             - Atoms:                                          1
                             - Shell sets:                                     1
                             - Shells:                                         5
                             - Primitive Cartesian functions:                  7
                             - Cartesian basis functions:                      9
                             - Spherical basis functions:                      9

  Maximum angular momentum of- Orbital basis functions:                        1
                             - Local part of the GTH pseudopotential:          2
                             - Non-local part of the GTH pseudopotential:      1


 SCF PARAMETERS         Density guess:                                    ATOMIC
                        --------------------------------------------------------
                        max_scf:                                             100
                        max_scf_history:                                       0
                        max_diis:                                              4
                        --------------------------------------------------------
                        eps_scf:                                        3.00E-07
                        eps_scf_history:                                0.00E+00
                        eps_diis:                                       1.00E-01
                        eps_eigval:                                     1.00E-05
                        --------------------------------------------------------
                        level_shift [a.u.]:                             0.000000
                        added MOs                                         4    0
                        --------------------------------------------------------
                        Mixing method:                            BROYDEN_MIXING
                                                charge density mixing in g-space
                        --------------------------------------------------------
                        Smear method:                                FERMI_DIRAC
                        Electronic temperature [K]:                        300.0
                        Electronic temperature [a.u.]:                  9.50E-04
                        Accuracy threshold:                             1.00E-10
                        --------------------------------------------------------
                        Outer loop SCF in use 
                        No variables optimised in outer loop
                        eps_scf                                         1.00E-06
                        max_scf                                               30
                        DIIS optimization
                        DIIS buffer length                                     3
                        step_size                                       5.00E-01

 Number of electrons:                                                          9
 Number of occupied orbitals:                                                  5
 Number of molecular orbitals:                                                 9

 Number of orbital functions:                                                  9
 Number of independent orbital functions:                                      9

 Extrapolation method: initial_guess


 SCF WAVEFUNCTION OPTIMIZATION

  Step     Update method      Time    Convergence         Total energy    Change
  ------------------------------------------------------------------------------
     1 NoMix/Diag. 0.10E+00    0.8     0.02076850       -47.1581597603 -4.72E+01
     2 Broy./Diag. 0.10E+00    1.7     0.00009441       -47.1166569855  4.15E-02
     3 Broy./Diag. 0.10E+00    1.8     0.00097540       -47.1565369383 -3.99E-02
     4 Broy./Diag. 0.10E+00    1.8     0.00002355       -47.1640128825 -7.48E-03
     5 Broy./Diag. 0.10E+00    1.9     0.00025334       -47.1639331105  7.98E-05
     6 Broy./Diag. 0.10E+00    1.9     0.00000894       -47.1640089216 -7.58E-05
     7 Broy./Diag. 0.10E+00    2.0     0.00014889       -47.1622194588  1.79E-03
     8 Broy./Diag. 0.10E+00    2.1     0.00001853       -47.1612222676  9.97E-04
     9 Broy./Diag. 0.10E+00    2.2     0.00019249       -47.1606090039  6.13E-04
    10 Broy./Diag. 0.10E+00    2.3     0.00000941       -47.1602407727  3.68E-04
    11 Broy./Diag. 0.10E+00    2.2     0.00009316       -47.1600591070  1.82E-04
    12 Broy./Diag. 0.10E+00    2.2     0.00000187       -47.1600163404  4.28E-05
    13 Broy./Diag. 0.10E+00    2.2     0.00000541       -47.1601298243 -1.13E-04
    14 Broy./Diag. 0.10E+00    2.2     0.00000080       -47.1601498938 -2.01E-05
    15 Broy./Diag. 0.10E+00    2.2     0.00001182       -47.1599750510  1.75E-04
    16 Broy./Diag. 0.10E+00    2.2     0.00000235       -47.1599513168  2.37E-05
    17 Broy./Diag. 0.10E+00    2.3     0.00000232       -47.1599982177 -4.69E-05
    18 Broy./Diag. 0.10E+00    2.2     0.00000200       -47.1600429385 -4.47E-05
    19 Broy./Diag. 0.10E+00    2.2     0.00000191       -47.1600611518 -1.82E-05
    20 Broy./Diag. 0.10E+00    2.2     0.00000184       -47.1600540270  7.12E-06
    21 Broy./Diag. 0.10E+00    2.2     0.00000268       -47.1600328235  2.12E-05
    22 Broy./Diag. 0.10E+00    2.2     0.00000330       -47.1600089317  2.39E-05
    23 Broy./Diag. 0.10E+00    2.2     0.00000347       -47.1599894771  1.95E-05
    24 Broy./Diag. 0.10E+00    2.2     0.00000080       -47.1599884266  1.05E-06
    25 Broy./Diag. 0.10E+00    2.2     0.00000032       -47.1599982462 -9.82E-06
    26 Broy./Diag. 0.10E+00    2.2     0.00000030       -47.1599929884  5.26E-06

  *** SCF run converged in    26 steps ***


  Electronic density on regular grids:         -9.0001244407       -0.0001244407
  Core density on regular grids:                9.0000000000       -0.0000000000
  Total charge density on r-space grids:       -0.0001244407
  Total charge density g-space grids:          -0.0001244407

  Overlap energy of the core charge distribution:               0.00000000000000
  Self energy of the core charge distribution:                -96.60649019442629
  Core Hamiltonian energy:                                     29.76067094567661
  Hartree energy:                                              26.73200861288242
  Exchange-correlation energy:                                 -7.04486410627101
  Dispersion energy:                                           -0.00000120476189
  Electronic entropic energy:                                  -0.00131704147593
  Fermi energy:                                                -0.09158433923713

  Total energy:                                               -47.15999298837608

  outer SCF iter =    1 RMS gradient =   0.30E-06 energy =        -47.1599929884
  outer SCF loop converged in   1 iterations or   26 steps


 *** WARNING in qs_loc_utils.F:1500 :: User requested the calculation of ***
 *** the localized wavefunction but the section LOCALIZE was not         ***
 *** specified. Localization will not be performed!                      ***


 -------------------------------------------------------------------------------
 -                                                                             -
 -  BSSE CALCULATION         FRAGMENT CONF: 11        FRAGMENT SUBCONF: 10     -
 -                           CHARGE =     0           MULTIPLICITY =     0     -
 -                                                                             -
 -                 ATOM INDEX                              ATOM NAME           -
 -                 ----------                              ---------           -
 -                      1                                   C                  -
 -                      2                                   C                  -
 -                      3                                   C                  -
 -                      4                                   C                  -
 -                      5                                   C                  -
 -                      6                                   C                  -
 -                      7                                   C                  -
 -                      8                                   C                  -
 -                      9                                   C                  -
 -                     10                                   C                  -
 -                     11                                   C                  -
 -                     12                                   C                  -
 -                     13                                   C                  -
 -                     14                                   C                  -
 -                     15                                   C                  -
 -                     16                                   C                  -
 -                     17                                   C                  -
 -                     18                                   C                  -
 -                     19                                   C                  -
 -                     20                                   C                  -
 -                     21                                   C                  -
 -                     22                                   C                  -
 -                     23                                   C                  -
 -                     24                                   C                  -
 -                     25                                   C                  -
 -                     26                                   C                  -
 -                     27                                   C                  -
 -                     28                                   C                  -
 -                     29                                   C                  -
 -                     30                                   C                  -
 -                     31                                   C                  -
 -                     32                                   C                  -
 -                     33                                   C                  -
 -                     34                                   C                  -
 -                     35                                   C                  -
 -                     36                                   C                  -
 -                     37                                   C                  -
 -                     38                                   C                  -
 -                     39                                   C                  -
 -                     40                                   C                  -
 -                     41                                   C                  -
 -                     42                                   C                  -
 -                     43                                   C                  -
 -                     44                                   C                  -
 -                     45                                   C                  -
 -                     46                                   C                  -
 -                     47                                   C                  -
 -                     48                                   C                  -
 -                     49                                   C                  -
 -                     50                                   C                  -
 -                     51                                   C                  -
 -                     52                                   C                  -
 -                     53                                   C                  -
 -                     54                                   C                  -
 -                     55                                   C                  -
 -                     56                                   C                  -
 -                     57                                   C                  -
 -                     58                                   C                  -
 -                     59                                   C                  -
 -                     60                                   C                  -
 -                     61                                   C                  -
 -                     62                                   C                  -
 -                     63                                   C                  -
 -                     64                                   C                  -
 -                     65                                   C                  -
 -                     66                                   C                  -
 -                     67                                   C                  -
 -                     68                                   C                  -
 -                     69                                   C                  -
 -                     70                                   C                  -
 -                     71                                   C                  -
 -                     72                                   C                  -
 -                     73                                   C                  -
 -                     74                                   C                  -
 -                     75                                   C                  -
 -                     76                                   C                  -
 -                     77                                   C                  -
 -                     78                                   C                  -
 -                     79                                   C                  -
 -                     80                                   C                  -
 -                     81                                   C                  -
 -                     82                                   C                  -
 -                     83                                   C                  -
 -                     84                                   C                  -
 -                     85                                   C                  -
 -                     86                                   C                  -
 -                     87                                   C                  -
 -                     88                                   C                  -
 -                     89                                   C                  -
 -                     90                                   C                  -
 -                     91                                   C                  -
 -                     92                                   C                  -
 -                     93                                   C                  -
 -                     94                                   C                  -
 -                     95                                   C                  -
 -                     96                                   C                  -
 -                     97                                   C                  -
 -                     98                                   C                  -
 -                     99                                   C                  -
 -                    100                                   C                  -
 -                    101                                   C                  -
 -                    102                                   C                  -
 -                    103                                   C                  -
 -                    104                                   C                  -
 -                    105                                   C                  -
 -                    106                                   C                  -
 -                    107                                   C                  -
 -                    108                                   C                  -
 -                    109                                   C                  -
 -                    110                                   C                  -
 -                    111                                   C                  -
 -                    112                                   C                  -
 -                    113                                   H                  -
 -                    114                                   H                  -
 -                    115                                   H                  -
 -                    116                                   H                  -
 -                    117                                   H                  -
 -                    118                                   H                  -
 -                    119                                   H                  -
 -                    120                                   H                  -
 -                    121                                   H                  -
 -                    122                                   H                  -
 -                    123                                   H                  -
 -                    124                                   H                  -
 -                    125                                   H                  -
 -                    126                                   H                  -
 -                    127                                   H                  -
 -                    128                                   O                  -
 -                    129                                   H                  -
 -                    130                                   Na_ghost           -
 -------------------------------------------------------------------------------

 *******************************************************************************
 *******************************************************************************
 **                                                                           **
 **     #####                         ##              ##                      **
 **    ##   ##            ##          ##              ##                      **
 **   ##     ##                       ##            ######                    **
 **   ##     ##  ##   ##  ##   #####  ##  ##   ####   ##    #####    #####    **
 **   ##     ##  ##   ##  ##  ##      ## ##   ##      ##   ##   ##  ##   ##   **
 **   ##  ## ##  ##   ##  ##  ##      ####     ###    ##   ######   ######    **
 **    ##  ###   ##   ##  ##  ##      ## ##      ##   ##   ##       ##        **
 **     #######   #####   ##   #####  ##  ##  ####    ##    #####   ##        **
 **           ##                                                    ##        **
 **                                                                           **
 **                                                ... make the atoms dance   **
 **                                                                           **
 **            Copyright (C) by CP2K developers group (2000-2022)             **
 **                      J. Chem. Phys. 152, 194103 (2020)                    **
 **                                                                           **
 *******************************************************************************


 TOTAL NUMBERS AND MAXIMUM NUMBERS

  Total number of            - Atomic kinds:                                   4
                             - Atoms:                                        130
                             - Shell sets:                                   130
                             - Shells:                                       618
                             - Primitive Cartesian functions:                652
                             - Cartesian basis functions:                   1671
                             - Spherical basis functions:                   1558

  Maximum angular momentum of- Orbital basis functions:                        2
                             - Local part of the GTH pseudopotential:          2
                             - Non-local part of the GTH pseudopotential:      0


 SCF PARAMETERS         Density guess:                                    ATOMIC
                        --------------------------------------------------------
                        max_scf:                                             100
                        max_scf_history:                                       0
                        max_diis:                                              4
                        --------------------------------------------------------
                        eps_scf:                                        3.00E-07
                        eps_scf_history:                                0.00E+00
                        eps_diis:                                       1.00E-01
                        eps_eigval:                                     1.00E-05
                        --------------------------------------------------------
                        level_shift [a.u.]:                             0.000000
                        added MOs                                       100    0
                        --------------------------------------------------------
                        Mixing method:                            BROYDEN_MIXING
                                                charge density mixing in g-space
                        --------------------------------------------------------
                        Smear method:                                FERMI_DIRAC
                        Electronic temperature [K]:                        300.0
                        Electronic temperature [a.u.]:                  9.50E-04
                        Accuracy threshold:                             1.00E-10
                        --------------------------------------------------------
                        Outer loop SCF in use 
                        No variables optimised in outer loop
                        eps_scf                                         1.00E-06
                        max_scf                                               30
                        DIIS optimization
                        DIIS buffer length                                     3
                        step_size                                       5.00E-01

 Number of electrons:                                                        470
 Number of occupied orbitals:                                                235
 Number of molecular orbitals:                                               335

 Number of orbital functions:                                               1558
 Number of independent orbital functions:                                   1558

 Extrapolation method: initial_guess


 SCF WAVEFUNCTION OPTIMIZATION

  Step     Update method      Time    Convergence         Total energy    Change
  ------------------------------------------------------------------------------
     1 NoMix/Diag. 0.10E+00    1.9     0.95208899      -656.4097735090 -6.56E+02
     2 Broy./Diag. 0.10E+00    3.0     0.06812219      -631.0005418290  2.54E+01
     3 Broy./Diag. 0.10E+00    3.0     0.26693375      -644.4497313801 -1.34E+01
     4 Broy./Diag. 0.10E+00    3.1     0.11481324      -656.5517791300 -1.21E+01
     5 Broy./Diag. 0.10E+00    3.1     0.09468430      -660.0662772384 -3.51E+00
     6 Broy./Diag. 0.10E+00    3.2     0.17270478      -661.1473678703 -1.08E+00
     7 Broy./Diag. 0.10E+00    3.2     0.03361600      -661.7129194031 -5.66E-01
     8 Broy./Diag. 0.10E+00    3.3     0.03818949      -661.8235403463 -1.11E-01
     9 Broy./Diag. 0.10E+00    3.4     0.02086979      -662.1841998604 -3.61E-01
    10 Broy./Diag. 0.10E+00    3.5     0.04071002      -662.3740720599 -1.90E-01
    11 Broy./Diag. 0.10E+00    3.5     0.00627413      -662.5939679863 -2.20E-01
    12 Broy./Diag. 0.10E+00    3.5     0.00734618      -662.7371062235 -1.43E-01
    13 Broy./Diag. 0.10E+00    3.5     0.00723108      -662.9292603727 -1.92E-01
    14 Broy./Diag. 0.10E+00    3.5     0.00485532      -663.0039346296 -7.47E-02
    15 Broy./Diag. 0.10E+00    3.5     0.00407078      -663.0674854502 -6.36E-02
    16 Broy./Diag. 0.10E+00    3.5     0.00319512      -663.1114842081 -4.40E-02
    17 Broy./Diag. 0.10E+00    3.5     0.00145468      -663.1345862672 -2.31E-02
    18 Broy./Diag. 0.10E+00    3.5     0.00254866      -663.1210056224  1.36E-02
    19 Broy./Diag. 0.10E+00    3.5     0.00064311      -663.1194804833  1.53E-03
    20 Broy./Diag. 0.10E+00    3.5     0.00154611      -663.1098138846  9.67E-03
    21 Broy./Diag. 0.10E+00    3.5     0.00063090      -663.1148664099 -5.05E-03
    22 Broy./Diag. 0.10E+00    3.5     0.00103439      -663.1199555905 -5.09E-03
    23 Broy./Diag. 0.10E+00    3.5     0.00061701      -663.1297611132 -9.81E-03
    24 Broy./Diag. 0.10E+00    3.5     0.00029491      -663.1360909061 -6.33E-03
    25 Broy./Diag. 0.10E+00    3.5     0.00041764      -663.1509927537 -1.49E-02
    26 Broy./Diag. 0.10E+00    3.5     0.00020815      -663.1662129637 -1.52E-02
    27 Broy./Diag. 0.10E+00    3.5     0.00026967      -663.1667224957 -5.10E-04
    28 Broy./Diag. 0.10E+00    3.5     0.00008469      -663.1641141233  2.61E-03
    29 Broy./Diag. 0.10E+00    3.5     0.00036793      -663.1617189388  2.40E-03
    30 Broy./Diag. 0.10E+00    3.5     0.00011001      -663.1610706685  6.48E-04
    31 Broy./Diag. 0.10E+00    3.5     0.00023688      -663.1575321761  3.54E-03
    32 Broy./Diag. 0.10E+00    3.5     0.00005750      -663.1562603504  1.27E-03
    33 Broy./Diag. 0.10E+00    3.5     0.00009278      -663.1564555925 -1.95E-04
    34 Broy./Diag. 0.10E+00    3.5     0.00008823      -663.1573685598 -9.13E-04
    35 Broy./Diag. 0.10E+00    3.5     0.00002840      -663.1582407966 -8.72E-04
    36 Broy./Diag. 0.10E+00    3.5     0.00005814      -663.1602499988 -2.01E-03
    37 Broy./Diag. 0.10E+00    3.5     0.00000866      -663.1615582543 -1.31E-03
    38 Broy./Diag. 0.10E+00    3.5     0.00001737      -663.1605512928  1.01E-03
    39 Broy./Diag. 0.10E+00    3.5     0.00000674      -663.1599622093  5.89E-04
    40 Broy./Diag. 0.10E+00    3.5     0.00002699      -663.1600292637 -6.71E-05
    41 Broy./Diag. 0.10E+00    3.5     0.00000638      -663.1602858094 -2.57E-04
    42 Broy./Diag. 0.10E+00    3.5     0.00001930      -663.1604100812 -1.24E-04
    43 Broy./Diag. 0.10E+00    3.5     0.00000782      -663.1604265645 -1.65E-05
    44 Broy./Diag. 0.10E+00    3.5     0.00000552      -663.1603743200  5.22E-05
    45 Broy./Diag. 0.10E+00    3.5     0.00001442      -663.1603223383  5.20E-05
    46 Broy./Diag. 0.10E+00    3.5     0.00000378      -663.1602756592  4.67E-05
    47 Broy./Diag. 0.10E+00    3.5     0.00000880      -663.1602462858  2.94E-05
    48 Broy./Diag. 0.10E+00    3.5     0.00000393      -663.1603399013 -9.36E-05
    49 Broy./Diag. 0.10E+00    3.5     0.00000268      -663.1604167059 -7.68E-05
    50 Broy./Diag. 0.10E+00    3.5     0.00000317      -663.1603680945  4.86E-05
    51 Broy./Diag. 0.10E+00    3.5     0.00000142      -663.1603131317  5.50E-05
    52 Broy./Diag. 0.10E+00    3.5     0.00000361      -663.1603008029  1.23E-05
    53 Broy./Diag. 0.10E+00    3.5     0.00000103      -663.1603113519 -1.05E-05
    54 Broy./Diag. 0.10E+00    3.5     0.00000223      -663.1603330264 -2.17E-05
    55 Broy./Diag. 0.10E+00    3.5     0.00000086      -663.1603424340 -9.41E-06
    56 Broy./Diag. 0.10E+00    3.5     0.00000073      -663.1603480117 -5.58E-06
    57 Broy./Diag. 0.10E+00    3.5     0.00000098      -663.1603472492  7.62E-07
    58 Broy./Diag. 0.10E+00    3.5     0.00000041      -663.1603381560  9.09E-06
    59 Broy./Diag. 0.10E+00    3.5     0.00000064      -663.1603260161  1.21E-05
    60 Broy./Diag. 0.10E+00    3.5     0.00000035      -663.1603223980  3.62E-06
    61 Broy./Diag. 0.10E+00    3.5     0.00000045      -663.1603224259 -2.80E-08
    62 Broy./Diag. 0.10E+00    3.5     0.00000034      -663.1603160730  6.35E-06
    63 Broy./Diag. 0.10E+00    3.5     0.00000016      -663.1603109303  5.14E-06

  *** SCF run converged in    63 steps ***


  Electronic density on regular grids:       -470.0000000497       -0.0000000497
  Core density on regular grids:              469.9999999997       -0.0000000003
  Total charge density on r-space grids:       -0.0000000500
  Total charge density g-space grids:          -0.0000000500

  Overlap energy of the core charge distribution:               0.00002442370124
  Self energy of the core charge distribution:              -1557.61467821861265
  Core Hamiltonian energy:                                    487.83174826638708
  Hartree energy:                                             611.56986261885481
  Exchange-correlation energy:                               -204.81145736089371
  Dispersion energy:                                           -0.13267663234834
  Electronic entropic energy:                                  -0.00313402799859
  Fermi energy:                                                -0.12603475765034

  Total energy:                                              -663.16031093027937

  outer SCF iter =    1 RMS gradient =   0.16E-06 energy =       -663.1603109303
  outer SCF loop converged in   1 iterations or   63 steps


 *** WARNING in qs_loc_utils.F:1500 :: User requested the calculation of ***
 *** the localized wavefunction but the section LOCALIZE was not         ***
 *** specified. Localization will not be performed!                      ***


 -------------------------------------------------------------------------------
 -                                                                             -
 -  BSSE CALCULATION         FRAGMENT CONF: 11        FRAGMENT SUBCONF: 01     -
 -                           CHARGE =     0           MULTIPLICITY =     0     -
 -                                                                             -
 -                 ATOM INDEX                              ATOM NAME           -
 -                 ----------                              ---------           -
 -                      1                                   C_ghost            -
 -                      2                                   C_ghost            -
 -                      3                                   C_ghost            -
 -                      4                                   C_ghost            -
 -                      5                                   C_ghost            -
 -                      6                                   C_ghost            -
 -                      7                                   C_ghost            -
 -                      8                                   C_ghost            -
 -                      9                                   C_ghost            -
 -                     10                                   C_ghost            -
 -                     11                                   C_ghost            -
 -                     12                                   C_ghost            -
 -                     13                                   C_ghost            -
 -                     14                                   C_ghost            -
 -                     15                                   C_ghost            -
 -                     16                                   C_ghost            -
 -                     17                                   C_ghost            -
 -                     18                                   C_ghost            -
 -                     19                                   C_ghost            -
 -                     20                                   C_ghost            -
 -                     21                                   C_ghost            -
 -                     22                                   C_ghost            -
 -                     23                                   C_ghost            -
 -                     24                                   C_ghost            -
 -                     25                                   C_ghost            -
 -                     26                                   C_ghost            -
 -                     27                                   C_ghost            -
 -                     28                                   C_ghost            -
 -                     29                                   C_ghost            -
 -                     30                                   C_ghost            -
 -                     31                                   C_ghost            -
 -                     32                                   C_ghost            -
 -                     33                                   C_ghost            -
 -                     34                                   C_ghost            -
 -                     35                                   C_ghost            -
 -                     36                                   C_ghost            -
 -                     37                                   C_ghost            -
 -                     38                                   C_ghost            -
 -                     39                                   C_ghost            -
 -                     40                                   C_ghost            -
 -                     41                                   C_ghost            -
 -                     42                                   C_ghost            -
 -                     43                                   C_ghost            -
 -                     44                                   C_ghost            -
 -                     45                                   C_ghost            -
 -                     46                                   C_ghost            -
 -                     47                                   C_ghost            -
 -                     48                                   C_ghost            -
 -                     49                                   C_ghost            -
 -                     50                                   C_ghost            -
 -                     51                                   C_ghost            -
 -                     52                                   C_ghost            -
 -                     53                                   C_ghost            -
 -                     54                                   C_ghost            -
 -                     55                                   C_ghost            -
 -                     56                                   C_ghost            -
 -                     57                                   C_ghost            -
 -                     58                                   C_ghost            -
 -                     59                                   C_ghost            -
 -                     60                                   C_ghost            -
 -                     61                                   C_ghost            -
 -                     62                                   C_ghost            -
 -                     63                                   C_ghost            -
 -                     64                                   C_ghost            -
 -                     65                                   C_ghost            -
 -                     66                                   C_ghost            -
 -                     67                                   C_ghost            -
 -                     68                                   C_ghost            -
 -                     69                                   C_ghost            -
 -                     70                                   C_ghost            -
 -                     71                                   C_ghost            -
 -                     72                                   C_ghost            -
 -                     73                                   C_ghost            -
 -                     74                                   C_ghost            -
 -                     75                                   C_ghost            -
 -                     76                                   C_ghost            -
 -                     77                                   C_ghost            -
 -                     78                                   C_ghost            -
 -                     79                                   C_ghost            -
 -                     80                                   C_ghost            -
 -                     81                                   C_ghost            -
 -                     82                                   C_ghost            -
 -                     83                                   C_ghost            -
 -                     84                                   C_ghost            -
 -                     85                                   C_ghost            -
 -                     86                                   C_ghost            -
 -                     87                                   C_ghost            -
 -                     88                                   C_ghost            -
 -                     89                                   C_ghost            -
 -                     90                                   C_ghost            -
 -                     91                                   C_ghost            -
 -                     92                                   C_ghost            -
 -                     93                                   C_ghost            -
 -                     94                                   C_ghost            -
 -                     95                                   C_ghost            -
 -                     96                                   C_ghost            -
 -                     97                                   C_ghost            -
 -                     98                                   C_ghost            -
 -                     99                                   C_ghost            -
 -                    100                                   C_ghost            -
 -                    101                                   C_ghost            -
 -                    102                                   C_ghost            -
 -                    103                                   C_ghost            -
 -                    104                                   C_ghost            -
 -                    105                                   C_ghost            -
 -                    106                                   C_ghost            -
 -                    107                                   C_ghost            -
 -                    108                                   C_ghost            -
 -                    109                                   C_ghost            -
 -                    110                                   C_ghost            -
 -                    111                                   C_ghost            -
 -                    112                                   C_ghost            -
 -                    113                                   H_ghost            -
 -                    114                                   H_ghost            -
 -                    115                                   H_ghost            -
 -                    116                                   H_ghost            -
 -                    117                                   H_ghost            -
 -                    118                                   H_ghost            -
 -                    119                                   H_ghost            -
 -                    120                                   H_ghost            -
 -                    121                                   H_ghost            -
 -                    122                                   H_ghost            -
 -                    123                                   H_ghost            -
 -                    124                                   H_ghost            -
 -                    125                                   H_ghost            -
 -                    126                                   H_ghost            -
 -                    127                                   H_ghost            -
 -                    128                                   O_ghost            -
 -                    129                                   H_ghost            -
 -                    130                                   Na                 -
 -------------------------------------------------------------------------------

 *******************************************************************************
 *******************************************************************************
 **                                                                           **
 **     #####                         ##              ##                      **
 **    ##   ##            ##          ##              ##                      **
 **   ##     ##                       ##            ######                    **
 **   ##     ##  ##   ##  ##   #####  ##  ##   ####   ##    #####    #####    **
 **   ##     ##  ##   ##  ##  ##      ## ##   ##      ##   ##   ##  ##   ##   **
 **   ##  ## ##  ##   ##  ##  ##      ####     ###    ##   ######   ######    **
 **    ##  ###   ##   ##  ##  ##      ## ##      ##   ##   ##       ##        **
 **     #######   #####   ##   #####  ##  ##  ####    ##    #####   ##        **
 **           ##                                                    ##        **
 **                                                                           **
 **                                                ... make the atoms dance   **
 **                                                                           **
 **            Copyright (C) by CP2K developers group (2000-2022)             **
 **                      J. Chem. Phys. 152, 194103 (2020)                    **
 **                                                                           **
 *******************************************************************************


 TOTAL NUMBERS AND MAXIMUM NUMBERS

  Total number of            - Atomic kinds:                                   4
                             - Atoms:                                        130
                             - Shell sets:                                   130
                             - Shells:                                       618
                             - Primitive Cartesian functions:                652
                             - Cartesian basis functions:                   1671
                             - Spherical basis functions:                   1558

  Maximum angular momentum of- Orbital basis functions:                        2
                             - Local part of the GTH pseudopotential:          2
                             - Non-local part of the GTH pseudopotential:      1


 SCF PARAMETERS         Density guess:                                    ATOMIC
                        --------------------------------------------------------
                        max_scf:                                             100
                        max_scf_history:                                       0
                        max_diis:                                              4
                        --------------------------------------------------------
                        eps_scf:                                        3.00E-07
                        eps_scf_history:                                0.00E+00
                        eps_diis:                                       1.00E-01
                        eps_eigval:                                     1.00E-05
[...]
 -                                                                             -
 -------------------------------------------------------------------------------
 COUNTER                                    TOTAL       BLAS       SMM       ACC
 flops     9 x     9 x     9                90396     100.0%      0.0%      0.0%
 flops     5 x     9 x     9               116640     100.0%      0.0%      0.0%
 flops     9 x     5 x     9               116640     100.0%      0.0%      0.0%
 flops     9 x     9 x    32               559872     100.0%      0.0%      0.0%
 flops     9 x     9 x    79               806274     100.0%      0.0%      0.0%
 flops     9 x     9 x    84               843696     100.0%      0.0%      0.0%
 flops     5 x     5 x     9              1166400     100.0%      0.0%      0.0%
 flops     5 x     9 x    32              1244160     100.0%      0.0%      0.0%
 flops     9 x     5 x    32              1244160     100.0%      0.0%      0.0%
 flops     9 x     9 x    64              1296000     100.0%      0.0%      0.0%
 flops     5 x     9 x    79              1791720     100.0%      0.0%      0.0%
 flops     9 x     5 x    79              1791720     100.0%      0.0%      0.0%
 flops     5 x     9 x    84              1874880     100.0%      0.0%      0.0%
 flops     9 x     5 x    84              1874880     100.0%      0.0%      0.0%
 flops     5 x     9 x    64              2880000     100.0%      0.0%      0.0%
 flops     9 x     5 x    64              2880000     100.0%      0.0%      0.0%
 flops    13 x     9 x     9              3563352     100.0%      0.0%      0.0%
 flops     9 x    13 x     9              3714984     100.0%      0.0%      0.0%
 flops     9 x     9 x    96              3888000     100.0%      0.0%      0.0%
 flops     5 x     9 x    96              8640000     100.0%      0.0%      0.0%
 flops     9 x     5 x    96              8640000     100.0%      0.0%      0.0%
 flops     5 x     5 x    32             12441600     100.0%      0.0%      0.0%
 flops     5 x     5 x    84             18748800     100.0%      0.0%      0.0%
 flops    13 x     5 x     9             27335880     100.0%      0.0%      0.0%
 flops     5 x    13 x     9             27378000     100.0%      0.0%      0.0%
 flops     5 x     5 x    79             34128000     100.0%      0.0%      0.0%
 flops    13 x     9 x    32             38009088     100.0%      0.0%      0.0%
 flops     9 x    13 x    32             39626496     100.0%      0.0%      0.0%
 flops     5 x     5 x    64             41932800     100.0%      0.0%      0.0%
 flops    13 x     9 x    79             54737046     100.0%      0.0%      0.0%
 flops     9 x    13 x    79             57066282     100.0%      0.0%      0.0%
 flops    13 x     9 x    84             57277584     100.0%      0.0%      0.0%
 flops     9 x    13 x    84             59714928     100.0%      0.0%      0.0%
 flops    13 x     9 x    64             87984000     100.0%      0.0%      0.0%
 flops     9 x    13 x    64             91728000     100.0%      0.0%      0.0%
 flops     5 x     5 x    96            125798400     100.0%      0.0%      0.0%
 flops    13 x     9 x    96            263952000     100.0%      0.0%      0.0%
 flops     9 x    13 x    96            275184000     100.0%      0.0%      0.0%
 flops    13 x     5 x    32            291582720     100.0%      0.0%      0.0%
 flops     5 x    13 x    32            292032000     100.0%      0.0%      0.0%
 flops    13 x     5 x    84            439398960     100.0%      0.0%      0.0%
 flops     5 x    13 x    84            440076000     100.0%      0.0%      0.0%
 flops    13 x    13 x     9            629913024     100.0%      0.0%      0.0%
 flops    13 x     5 x    79            799827600     100.0%      0.0%      0.0%
 flops     5 x    13 x    79            801060000     100.0%      0.0%      0.0%
 flops    13 x     5 x    64            982741760     100.0%      0.0%      0.0%
 flops     5 x    13 x    64            984256000     100.0%      0.0%      0.0%
 flops    13 x     5 x    96           2948225280     100.0%      0.0%      0.0%
 flops     5 x    13 x    96           2952768000     100.0%      0.0%      0.0%
 flops    13 x    13 x    32           6719072256     100.0%      0.0%      0.0%
 flops    13 x    13 x    84          10125268608     100.0%      0.0%      0.0%
 flops    13 x    13 x    79          18430788480     100.0%      0.0%      0.0%
 flops    13 x    13 x    64          22645762048     100.0%      0.0%      0.0%
 flops    13 x    13 x    96          67937286144     100.0%      0.0%      0.0%
 flops inhomo. stacks                           0       0.0%      0.0%      0.0%
 flops total                       138.782126E+09     100.0%      0.0%      0.0%
 flops max/rank                      8.917524E+09     100.0%      0.0%      0.0%
 matmuls inhomo. stacks                         0       0.0%      0.0%      0.0%
 matmuls total                            6278902     100.0%      0.0%      0.0%
 number of processed stacks                 62690     100.0%      0.0%      0.0%
 average stack size                                   100.2       0.0       0.0
 marketing flops                   211.606979E+09
 -------------------------------------------------------------------------------
 # multiplications                            244
 max memory usage/rank               1.207054E+09
 # max total images/rank                        1
 # max 3D layers                                1
 # MPI messages exchanged                   23424
 MPI messages size (bytes):
  total size                         4.857299E+09
  min size                           0.000000E+00
  max size                         301.056000E+03
  average size                     207.364203E+03
 MPI breakdown and total messages size (bytes):
             size <=      128                2340                        0
       128 < size <=     8192                 156                   101088
      8192 < size <=    32768                 864                 24230016
     32768 < size <=   131072                2592                258453504
    131072 < size <=  4194304               17472               4574514480
   4194304 < size <= 16777216                   0                        0
  16777216 < size                               0                        0
 -------------------------------------------------------------------------------
 -                                                                             -
 -                      DBCSR MESSAGE PASSING PERFORMANCE                      -
 -                                                                             -
 -------------------------------------------------------------------------------
 ROUTINE             CALLS      AVE VOLUME [Bytes]
 MP_Bcast               55                     12.
 MP_Allreduce         1840                      9.
 MP_Alltoall          6892                 255766.
 MP_ISend             3904                  84897.
 MP_IRecv             3904                  74321.
 -------------------------------------------------------------------------------

 -------------------------------------------------------------------------------
 -                                                                             -
 -                                DBM STATISTICS                               -
 -                                                                             -
 -------------------------------------------------------------------------------
    M  x    N  x    K                                          COUNT     PERCENT
 -------------------------------------------------------------------------------

 -------------------------------------------------------------------------------
 -                                                                             -
 -                                GRID STATISTICS                              -
 -                                                                             -
 -------------------------------------------------------------------------------
 LP    KERNEL             BACKEND                              COUNT     PERCENT
 4     collocate general  REF                               11573748      41.49%
 4     integrate general  REF                               11365212      40.74%
 3     collocate general  REF                                2207582       7.91%
 3     integrate general  REF                                2167773       7.77%
 2     collocate general  REF                                 289183       1.04%
 2     integrate general  REF                                 283939       1.02%
 0     collocate general  REF                                   6240       0.02%
 -------------------------------------------------------------------------------

 MEMORY| Estimated peak process memory [MiB]                                1152

 -------------------------------------------------------------------------------
 -                                                                             -
 -                         MESSAGE PASSING PERFORMANCE                         -
 -                                                                             -
 -------------------------------------------------------------------------------

 ROUTINE             CALLS      AVE VOLUME [Bytes]
 MP_Group               24
 MP_Bcast              753                2533917.
 MP_Allreduce         3361                   3002.
 MP_Sync               294
 MP_Alltoall          3272               34103345.
 MP_SendRecv         10398                 390600.
 MP_ISendRecv         7320                 251100.
 MP_Wait             31592
 MP_comm_split          26
 MP_ISend            20806                1135143.
 MP_IRecv            20806                1135397.
 MP_Recv               120                 381868.
 -------------------------------------------------------------------------------


 -------------------------------------------------------------------------------
 -                                                                             -
 -                           R E F E R E N C E S                               -
 -                                                                             -
 -------------------------------------------------------------------------------
 
 CP2K version 2023.1, the CP2K developers group (2023).
 CP2K is freely available from https://www.cp2k.org/ .

 Kuehne,Thomas D.; Iannuzzi,Marcella; Del Ben,Mauro;
 Rybkin,Vladimir V.; Seewald,Patrick; Stein,Frederick; Laino,Teodoro;
 Khaliullin,Rustam Z.; Schuett,Ole; Schiffmann,Florian; Golze,Dorothea;
 Wilhelm,Jan; Chulkov,Sergey; Bani-Hashemian,Mohammad Hossein;
 Weber,Valery; Borstnik,Urban; Taillefumier,Mathieu;
 Jakobovits,Alice Shoshana; Lazzaro,Alfio; Pabst,Hans; Mueller,Tiziano;
 Schade,Robert; Guidon,Manuel; Andermatt,Samuel; Holmberg,Nico;
 Schenter,Gregory K.; Hehn,Anna; Bussy,Augustin; Belleflamme,Fabian;
 Tabacchi,Gloria; Gloess,Andreas; Lass,Michael; Bethune,Iain;
 Mundy,Christopher J.; Plessl,Christian; Watkins,Matt;
 VandeVondele,Joost; Krack,Matthias; Hutter,Juerg. 
 The Journal of Chemical Physics, 152 (19), (2020). 
 CP2K: An electronic structure and molecular dynamics software package -
 Quickstep: Efficient and accurate electronic structure calculations.
 https://doi.org/10.1063/5.0007045

 Goerigk, Lars; Hansen, Andreas; Bauer, Christoph; Ehrlich, Stephan;
 Najibi, Asim; Grimme, Stefan. , 19 (48), (2017). 
 A look at the density functional theory zoo with the advanced GMTKN55 database
 for general main group thermochemistry, kinetics and noncovalent interactions.
 https://doi.org/10.1039/C7CP04913G

 Schuett, Ole; Messmer, Peter; Hutter, Juerg; VandeVondele, Joost. 
 Electronic Structure Calculations on Graphics Processing Units, John
 Wiley & Sons, Ltd, 173-190 (2016). 
 GPU-Accelerated Sparse Matrix-Matrix Multiplication for
 Linear Scaling Density Functional Theory.
 https://doi.org/10.1002/9781118670712.ch8

 Borstnik, U; VandeVondele, J; Weber, V; Hutter, J. 
 PARALLEL COMPUTING, 40 (5-6), 47-58 (2014). 
 Sparse matrix multiplication: The distributed block-compressed sparse
 row library.
 https://doi.org/10.1016/j.parco.2014.03.012

 Hutter, J; Iannuzzi, M; Schiffmann, F; VandeVondele, J. 
 WIREs Comput Mol Sci., 4 (1), 15-25 (2014). 
 CP2K: atomistic simulations of condensed matter systems.
 https://doi.org/10.1002/wcms.1159

 Marek, A; Blum, V; Johanni, R; Havu, V; Lang, B; Auckenthaler, T;
 Heinecke, A; Bungartz, H; Lederer, H. 
 Journal of Physics: Condensed Matter, 26 (21), (2014). 
 The ELPA library: scalable parallel eigenvalue solutions for
 electronic structure
 theory and computational science.
 https://doi.org/10.1088/0953-8984/26/21/213201

 Grimme, S; Ehrlich, S; Goerigk, L. 
 JOURNAL OF COMPUTATIONAL CHEMISTRY, 32, 1456 (2011). 
 Effect of the damping function in dispersion corrected density functional theory.
 https://doi.org/10.1002/jcc.21759

 Grimme, S; Antony, J; Ehrlich, S; Krieg, H. 
 JOURNAL OF CHEMICAL PHYSICS, 132 (15), 154104 (2010). 
 A consistent and accurate ab initio parametrization of density
 functional dispersion correction (DFT-D) for the 94 elements H-Pu.
 https://doi.org/10.1063/1.3382344

 VandeVondele, J; Hutter, J. 
 JOURNAL OF CHEMICAL PHYSICS, 127 (11), 114105 (2007). 
 Gaussian basis sets for accurate calculations on molecular systems in
 gas and condensed phases.
 https://doi.org/10.1063/1.2770708

 Krack, M. 
 THEORETICAL CHEMISTRY ACCOUNTS, 114 (1-3), 145-152 (2005). 
 Pseudopotentials for H to Kr optimized for gradient-corrected
 exchange-correlation functionals.
 https://doi.org/10.1007/s00214-005-0655-y

 VandeVondele, J; Krack, M; Mohamed, F; Parrinello, M; Chassaing, T;
 Hutter, J. COMPUTER PHYSICS COMMUNICATIONS, 167 (2), 103-128 (2005). 
 QUICKSTEP: Fast and accurate density functional calculations using a
 mixed Gaussian and plane waves approach.
 https://doi.org/10.1016/j.cpc.2004.12.014

 Frigo, M; Johnson, SG. 
 PROCEEDINGS OF THE IEEE, 93 (2), 216-231 (2005). 
 The design and implementation of FFTW3.
 https://doi.org/10.1109/JPROC.2004.840301

 Hartwigsen, C; Goedecker, S; Hutter, J. 
 PHYSICAL REVIEW B, 58 (7), 3641-3662 (1998). 
 Relativistic separable dual-space Gaussian pseudopotentials from H to Rn.
 https://doi.org/10.1103/PhysRevB.58.3641

 Lippert, G; Hutter, J; Parrinello, M. 
 MOLECULAR PHYSICS, 92 (3), 477-487 (1997). 
 A hybrid Gaussian and plane wave density functional scheme.
 https://doi.org/10.1080/002689797170220

 Perdew, JP; Burke, K; Ernzerhof, M. 
 PHYSICAL REVIEW LETTERS, 77 (18), 3865-3868 (1996). 
 Generalized gradient approximation made simple.
 https://doi.org/10.1103/PhysRevLett.77.3865

 Goedecker, S; Teter, M; Hutter, J. 
 PHYSICAL REVIEW B, 54 (3), 1703-1710 (1996). 
 Separable dual-space Gaussian pseudopotentials.
 https://doi.org/10.1103/PhysRevB.54.1703


 -------------------------------------------------------------------------------
 -                                                                             -
 -                                T I M I N G                                  -
 -                                                                             -
 -------------------------------------------------------------------------------
 SUBROUTINE                       CALLS  ASD         SELF TIME        TOTAL TIME
                                MAXIMUM       AVERAGE  MAXIMUM  AVERAGE  MAXIMUM
 CP2K                                 1  1.0    0.054    0.065  879.404  879.405
 qs_energies                          5  2.0    0.000    0.000  876.817  876.951
 scf_env_do_scf                       5  3.0    0.001    0.001  869.965  870.091
 scf_env_do_scf_inner_loop          244  4.0    0.007    0.019  869.964  870.090
 qs_ks_update_qs_env                244  5.0    0.002    0.002  348.540  348.572
 rebuild_ks_matrix                  244  6.0    0.001    0.001  348.414  348.450
 qs_ks_build_kohn_sham_matrix       244  7.0    0.037    0.041  348.413  348.449
 pw_transfer                       3197  8.9    0.383    0.423  231.598  235.875
 fft_wrap_pw1pw2                   2709  9.9    0.044    0.047  224.603  229.089
 fft_wrap_pw1pw2_150               1230 10.2   19.176   19.709  207.752  213.268
 qs_rho_update_rho_low              249  5.0    0.001    0.001  209.989  210.024
 calculate_rho_elec                 249  6.0    1.102    1.141  209.988  210.023
 sum_up_and_integrate               244  8.0    3.767    4.202  197.765  197.800
 integrate_v_rspace                 244  9.0    0.015    0.017  193.997  194.290
 gspace_mixing                      239  5.0    1.055    1.091  176.530  176.530
 fft3d_ps                          2709 11.9   91.893   97.053  153.815  160.790
 qs_scf_new_mos                     244  5.0    0.004    0.004  138.432  138.534
 broyden_mixing                     239  6.0  133.870  137.930  136.299  138.057
 density_rs2pw                      249  7.0    0.020    0.023  122.721  135.394
 eigensolver                        244  6.0    0.021    0.029  133.806  133.848
 grid_integrate_task_list           244 10.0   92.930  105.268   92.930  105.268
 grid_collocate_task_list           249  7.0   84.287   97.118   84.287   97.118
 qs_vxc_create                      244  8.0    0.007    0.008   87.319   89.437
 xc_vxc_pw_create                   244  9.0    4.454    5.618   87.312   89.429
 potential_pw2rs                    244 10.0    0.103    0.131   88.407   88.703
 cp_fm_diag_elpa                    218  7.0    0.002    0.002   88.468   88.503
 cp_fm_diag_elpa_base               218  8.0   87.815   88.044   88.394   88.394
 rs_pw_transfer                    1977  9.5    0.044    0.049   59.667   73.291
 xc_rho_set_and_dset_create         244 10.0    5.580    7.126   63.969   66.445
 cp_fm_triangular_multiply          732  7.0   44.845   45.120   44.845   45.120
 xc_functional_eval                 244 11.0    0.007    0.008   40.941   43.730
 pbe_lda_eval                       244 12.0   40.934   43.723   40.934   43.723
 x_to_yz                           1464 13.2   25.438   26.367   38.208   39.750
 mp_waitany                       20806 11.5   24.207   37.928   24.207   37.928
 rs_pw_transfer_RS2PW_150           254  9.0    6.446    7.779   20.565   33.823
 xc_pw_derive                      1464 11.0    0.009    0.011   24.526   33.092
 pw_nn_compose_r                   1464 12.0   16.985   17.266   24.516   33.083
 mp_alltoall_d11v                  3451  9.3   13.456   28.438   13.456   28.438
 rs_gather_matrices                 244 10.0    0.174    0.194   12.645   27.577
 pw_gather_p                       1245 11.6   25.413   27.413   25.413   27.413
 mp_alltoall_z22v                  2709 13.9   21.627   26.022   21.627   26.022
 yz_to_x                           1245 12.6   14.749   15.756   23.607   25.997
 pw_scatter_p                      1464 12.2   25.111   25.707   25.111   25.707
 rs_pw_transfer_PW2RS_150           244 12.0   12.872   13.255   24.567   25.092
 xc_pw_divergence                   244 10.0    0.005    0.006   14.947   21.393
 -------------------------------------------------------------------------------

 The number of warnings for this run is : 6
 
 -------------------------------------------------------------------------------
  **** **** ******  **  PROGRAM ENDED AT                 2025-09-03 13:46:20.250
 ***** ** ***  *** **   PROGRAM RAN ON                                sebnode128
 **    ****   ******    PROGRAM RAN BY                                    luehrs
 ***** **    ** ** **   PROGRAM PROCESS ID                               2965782
  **** **  *******  **  PROGRAM STOPPED IN /home/luehrs/PhD/Sodium_batteries/Sod
                                           ium-graphene-functional_groups/Alcoho
                                           l/Hydrogenated_edges
