 DBCSR| CPU Multiplication driver                                           BLAS (U)
 DBCSR| Multrec recursion limit                                              512 (U)
 DBCSR| Multiplication stack size                                           1000 (D)
 DBCSR| Maximum elements for images                                    UNLIMITED (U)
 DBCSR| Multiplicative factor virtual images                                   1 (U)
 DBCSR| Use multiplication densification                                       T (D)
 DBCSR| Multiplication size stacks                                             3 (U)
 DBCSR| Use memory pool for CPU allocation                                     F (U)
 DBCSR| Number of 3D layers                                               SINGLE (U)
 DBCSR| Use MPI memory allocation                                              F (U)
 DBCSR| Use RMA algorithm                                                      F (U)
 DBCSR| Use Communication thread                                               T (U)
 DBCSR| Communication thread load                                             87 (D)
 DBCSR| MPI: My process id                                                     0
 DBCSR| MPI: Number of processes                                              16
 DBCSR| OMP: Current number of threads                                         1
 DBCSR| OMP: Max number of threads                                             1
 DBCSR| Split modifier for TAS multiplication algorithm                  1.0E+00 (U)


  **** **** ******  **  PROGRAM STARTED AT               2025-07-15 14:36:31.203
 ***** ** ***  *** **   PROGRAM STARTED ON                            sebnode120
 **    ****   ******    PROGRAM STARTED BY                                luehrs
 ***** **    ** ** **   PROGRAM PROCESS ID                                650602
  **** **  *******  **  PROGRAM STARTED IN /home/luehrs/PhD/Sodium_batteries/Sod
                                           ium-graphene-curvature/Sinus_surface/
                                           Sinus_3

 CP2K| version string:                                       CP2K version 2023.1
 CP2K| source code revision number:                                  git:b888bd8
 CP2K| cp2kflags: omp libint fftw3 libxc elpa parallel scalapack spglib         
 CP2K| is freely available from                            https://www.cp2k.org/
 CP2K| Program compiled at                          Tue Jan 10 19:52:03 UTC 2023
 CP2K| Program compiled on                                            x86-ubc-01
 CP2K| Program compiled for                                Linux-x86_64-gfortran
 CP2K| Data directory path                                       /usr/share/cp2k
 CP2K| Input file name                                         input.zig-zag.inp

 GLOBAL| Force Environment number                                              1
 GLOBAL| Basis set file name                                      ./BASIS_MOLOPT
 GLOBAL| Potential file name                                    ./GTH_POTENTIALS
 GLOBAL| MM Potential file name                                     MM_POTENTIAL
 GLOBAL| Coordinate file name                                 sinus3_relaxed.xyz
 GLOBAL| Method name                                                        CP2K
 GLOBAL| Project name                            graphene_sinus_Sodium_BSSE_CDFT
 GLOBAL| Run type                                                           BSSE
 GLOBAL| FFT library                                                       FFTW3
 GLOBAL| Diagonalization library                                            ELPA
 GLOBAL| DGEMM library                                                      BLAS
 GLOBAL| Minimum number of eigenvectors for ELPA usage                        16
 GLOBAL| Orthonormality check for eigenvectors                          DISABLED
 GLOBAL| Matrix multiplication library                                 ScaLAPACK
 GLOBAL| All-to-all communication in single precision                          F
 GLOBAL| FFTs using library dependent lengths                                  F
 GLOBAL| Grid backend                                                       AUTO
 GLOBAL| Global print level                                                  LOW
 GLOBAL| MPI I/O enabled                                                       T
 GLOBAL| Total number of message passing processes                            16
 GLOBAL| Number of threads for this process                                    1
 GLOBAL| This output is from process                                           0
 GLOBAL| Stack size for threads created by OpenMP (OMP_STACKSIZE)        default
 GLOBAL| CPU model name                 Intel(R) Xeon(R) Gold 6144 CPU @ 3.50GHz

 MEMORY| system memory details [Kb]
 MEMORY|                        rank 0           min           max       average
 MEMORY| MemTotal             65585096      65585096      65585096      65585096
 MEMORY| MemFree              63020888      63020888      63020888      63020888
 MEMORY| Buffers                275300        275300        275300        275300
 MEMORY| Cached                 331732        331732        331732        331732
 MEMORY| Slab                   219208        219208        219208        219208
 MEMORY| SReclaimable            79744         79744         79744         79744
 MEMORY| MemLikelyFree        63707664      63707664      63707664      63707664


 GENERATE|  Preliminary Number of Bonds generated:                             0
 GENERATE|  Achieved consistency in connectivity generation.

 *******************************************************************************
 *******************************************************************************
 **                                                                           **
 **     #####                         ##              ##                      **
 **    ##   ##            ##          ##              ##                      **
 **   ##     ##                       ##            ######                    **
 **   ##     ##  ##   ##  ##   #####  ##  ##   ####   ##    #####    #####    **
 **   ##     ##  ##   ##  ##  ##      ## ##   ##      ##   ##   ##  ##   ##   **
 **   ##  ## ##  ##   ##  ##  ##      ####     ###    ##   ######   ######    **
 **    ##  ###   ##   ##  ##  ##      ## ##      ##   ##   ##       ##        **
 **     #######   #####   ##   #####  ##  ##  ####    ##    #####   ##        **
 **           ##                                                    ##        **
 **                                                                           **
 **                                                ... make the atoms dance   **
 **                                                                           **
 **            Copyright (C) by CP2K developers group (2000-2022)             **
 **                      J. Chem. Phys. 152, 194103 (2020)                    **
 **                                                                           **
 *******************************************************************************


 TOTAL NUMBERS AND MAXIMUM NUMBERS

  Total number of            - Atomic kinds:                                   2
                             - Atoms:                                        193
                             - Shell sets:                                   193
                             - Shells:                                       965
                             - Primitive Cartesian functions:                967
                             - Cartesian basis functions:                   2697
                             - Spherical basis functions:                   2505

  Maximum angular momentum of- Orbital basis functions:                        2
                             - Local part of the GTH pseudopotential:          2
                             - Non-local part of the GTH pseudopotential:      1


 SCF PARAMETERS         Density guess:                                    ATOMIC
                        --------------------------------------------------------
                        max_scf:                                             300
                        max_scf_history:                                       0
                        max_diis:                                              4
                        --------------------------------------------------------
                        eps_scf:                                        3.00E-07
                        eps_scf_history:                                0.00E+00
                        eps_diis:                                       1.00E-01
                        eps_eigval:                                     1.00E-05
                        --------------------------------------------------------
                        level_shift [a.u.]:                             0.000000
                        added MOs                                       100  100
                        --------------------------------------------------------
                        Mixing method:                            BROYDEN_MIXING
                                                charge density mixing in g-space
                        --------------------------------------------------------
                        Smear method:                                FERMI_DIRAC
                        Electronic temperature [K]:                        300.0
                        Electronic temperature [a.u.]:                  9.50E-04
                        Accuracy threshold:                             1.00E-10
                        --------------------------------------------------------
                        Outer loop SCF in use 
                        No variables optimised in outer loop
                        eps_scf                                         1.00E-06
                        max_scf                                              300
                        DIIS optimization
                        DIIS buffer length                                     3
                        step_size                                       5.00E-01

 -------------------------------------------------------------------------------
 -                                                                             -
 -  BSSE CALCULATION         FRAGMENT CONF: 10        FRAGMENT SUBCONF: 10     -
 -                           CHARGE =     0           MULTIPLICITY =     1     -
 -                                                                             -
 -                 ATOM INDEX                              ATOM NAME           -
 -                 ----------                              ---------           -
 -                      1                                   C                  -
 -                      2                                   C                  -
 -                      3                                   C                  -
 -                      4                                   C                  -
 -                      5                                   C                  -
 -                      6                                   C                  -
 -                      7                                   C                  -
 -                      8                                   C                  -
 -                      9                                   C                  -
 -                     10                                   C                  -
 -                     11                                   C                  -
 -                     12                                   C                  -
 -                     13                                   C                  -
 -                     14                                   C                  -
 -                     15                                   C                  -
 -                     16                                   C                  -
 -                     17                                   C                  -
 -                     18                                   C                  -
 -                     19                                   C                  -
 -                     20                                   C                  -
 -                     21                                   C                  -
 -                     22                                   C                  -
 -                     23                                   C                  -
 -                     24                                   C                  -
 -                     25                                   C                  -
 -                     26                                   C                  -
 -                     27                                   C                  -
 -                     28                                   C                  -
 -                     29                                   C                  -
 -                     30                                   C                  -
 -                     31                                   C                  -
 -                     32                                   C                  -
 -                     33                                   C                  -
 -                     34                                   C                  -
 -                     35                                   C                  -
 -                     36                                   C                  -
 -                     37                                   C                  -
 -                     38                                   C                  -
 -                     39                                   C                  -
 -                     40                                   C                  -
 -                     41                                   C                  -
 -                     42                                   C                  -
 -                     43                                   C                  -
 -                     44                                   C                  -
 -                     45                                   C                  -
 -                     46                                   C                  -
 -                     47                                   C                  -
 -                     48                                   C                  -
 -                     49                                   C                  -
 -                     50                                   C                  -
 -                     51                                   C                  -
 -                     52                                   C                  -
 -                     53                                   C                  -
 -                     54                                   C                  -
 -                     55                                   C                  -
 -                     56                                   C                  -
 -                     57                                   C                  -
 -                     58                                   C                  -
 -                     59                                   C                  -
 -                     60                                   C                  -
 -                     61                                   C                  -
 -                     62                                   C                  -
 -                     63                                   C                  -
 -                     64                                   C                  -
 -                     65                                   C                  -
 -                     66                                   C                  -
 -                     67                                   C                  -
 -                     68                                   C                  -
 -                     69                                   C                  -
 -                     70                                   C                  -
 -                     71                                   C                  -
 -                     72                                   C                  -
 -                     73                                   C                  -
 -                     74                                   C                  -
 -                     75                                   C                  -
 -                     76                                   C                  -
 -                     77                                   C                  -
 -                     78                                   C                  -
 -                     79                                   C                  -
 -                     80                                   C                  -
 -                     81                                   C                  -
 -                     82                                   C                  -
 -                     83                                   C                  -
 -                     84                                   C                  -
 -                     85                                   C                  -
 -                     86                                   C                  -
 -                     87                                   C                  -
 -                     88                                   C                  -
 -                     89                                   C                  -
 -                     90                                   C                  -
 -                     91                                   C                  -
 -                     92                                   C                  -
 -                     93                                   C                  -
 -                     94                                   C                  -
 -                     95                                   C                  -
 -                     96                                   C                  -
 -                     97                                   C                  -
 -                     98                                   C                  -
 -                     99                                   C                  -
 -                    100                                   C                  -
 -                    101                                   C                  -
 -                    102                                   C                  -
 -                    103                                   C                  -
 -                    104                                   C                  -
 -                    105                                   C                  -
 -                    106                                   C                  -
 -                    107                                   C                  -
 -                    108                                   C                  -
 -                    109                                   C                  -
 -                    110                                   C                  -
 -                    111                                   C                  -
 -                    112                                   C                  -
 -                    113                                   C                  -
 -                    114                                   C                  -
 -                    115                                   C                  -
 -                    116                                   C                  -
 -                    117                                   C                  -
 -                    118                                   C                  -
 -                    119                                   C                  -
 -                    120                                   C                  -
 -                    121                                   C                  -
 -                    122                                   C                  -
 -                    123                                   C                  -
 -                    124                                   C                  -
 -                    125                                   C                  -
 -                    126                                   C                  -
 -                    127                                   C                  -
 -                    128                                   C                  -
 -                    129                                   C                  -
 -                    130                                   C                  -
 -                    131                                   C                  -
 -                    132                                   C                  -
 -                    133                                   C                  -
 -                    134                                   C                  -
 -                    135                                   C                  -
 -                    136                                   C                  -
 -                    137                                   C                  -
 -                    138                                   C                  -
 -                    139                                   C                  -
 -                    140                                   C                  -
 -                    141                                   C                  -
 -                    142                                   C                  -
 -                    143                                   C                  -
 -                    144                                   C                  -
 -                    145                                   C                  -
 -                    146                                   C                  -
 -                    147                                   C                  -
 -                    148                                   C                  -
 -                    149                                   C                  -
 -                    150                                   C                  -
 -                    151                                   C                  -
 -                    152                                   C                  -
 -                    153                                   C                  -
 -                    154                                   C                  -
 -                    155                                   C                  -
 -                    156                                   C                  -
 -                    157                                   C                  -
 -                    158                                   C                  -
 -                    159                                   C                  -
 -                    160                                   C                  -
 -                    161                                   C                  -
 -                    162                                   C                  -
 -                    163                                   C                  -
 -                    164                                   C                  -
 -                    165                                   C                  -
 -                    166                                   C                  -
 -                    167                                   C                  -
 -                    168                                   C                  -
 -                    169                                   C                  -
 -                    170                                   C                  -
 -                    171                                   C                  -
 -                    172                                   C                  -
 -                    173                                   C                  -
 -                    174                                   C                  -
 -                    175                                   C                  -
 -                    176                                   C                  -
 -                    177                                   C                  -
 -                    178                                   C                  -
 -                    179                                   C                  -
 -                    180                                   C                  -
 -                    181                                   C                  -
 -                    182                                   C                  -
 -                    183                                   C                  -
 -                    184                                   C                  -
 -                    185                                   C                  -
 -                    186                                   C                  -
 -                    187                                   C                  -
 -                    188                                   C                  -
 -                    189                                   C                  -
 -                    190                                   C                  -
 -                    191                                   C                  -
 -                    192                                   C                  -
 -------------------------------------------------------------------------------

 *******************************************************************************
 *******************************************************************************
 **                                                                           **
 **     #####                         ##              ##                      **
 **    ##   ##            ##          ##              ##                      **
 **   ##     ##                       ##            ######                    **
 **   ##     ##  ##   ##  ##   #####  ##  ##   ####   ##    #####    #####    **
 **   ##     ##  ##   ##  ##  ##      ## ##   ##      ##   ##   ##  ##   ##   **
 **   ##  ## ##  ##   ##  ##  ##      ####     ###    ##   ######   ######    **
 **    ##  ###   ##   ##  ##  ##      ## ##      ##   ##   ##       ##        **
 **     #######   #####   ##   #####  ##  ##  ####    ##    #####   ##        **
 **           ##                                                    ##        **
 **                                                                           **
 **                                                ... make the atoms dance   **
 **                                                                           **
 **            Copyright (C) by CP2K developers group (2000-2022)             **
 **                      J. Chem. Phys. 152, 194103 (2020)                    **
 **                                                                           **
 *******************************************************************************


 TOTAL NUMBERS AND MAXIMUM NUMBERS

  Total number of            - Atomic kinds:                                   1
                             - Atoms:                                        192
                             - Shell sets:                                   192
                             - Shells:                                       960
                             - Primitive Cartesian functions:                960
                             - Cartesian basis functions:                   2688
                             - Spherical basis functions:                   2496

  Maximum angular momentum of- Orbital basis functions:                        2
                             - Local part of the GTH pseudopotential:          2
                             - Non-local part of the GTH pseudopotential:      0


 SCF PARAMETERS         Density guess:                                    ATOMIC
                        --------------------------------------------------------
                        max_scf:                                             300
                        max_scf_history:                                       0
                        max_diis:                                              4
                        --------------------------------------------------------
                        eps_scf:                                        3.00E-07
                        eps_scf_history:                                0.00E+00
                        eps_diis:                                       1.00E-01
                        eps_eigval:                                     1.00E-05
                        --------------------------------------------------------
                        level_shift [a.u.]:                             0.000000
                        added MOs                                       100  100
                        --------------------------------------------------------
                        Mixing method:                            BROYDEN_MIXING
                                                charge density mixing in g-space
                        --------------------------------------------------------
                        Smear method:                                FERMI_DIRAC
                        Electronic temperature [K]:                        300.0
                        Electronic temperature [a.u.]:                  9.50E-04
                        Accuracy threshold:                             1.00E-10
                        --------------------------------------------------------
                        Outer loop SCF in use 
                        No variables optimised in outer loop
                        eps_scf                                         1.00E-06
                        max_scf                                              300
                        DIIS optimization
                        DIIS buffer length                                     3
                        step_size                                       5.00E-01

 Spin 1

 Number of electrons:                                                        384
 Number of occupied orbitals:                                                384
 Number of molecular orbitals:                                               484

 Spin 2

 Number of electrons:                                                        384
 Number of occupied orbitals:                                                384
 Number of molecular orbitals:                                               484

 Number of orbital functions:                                               2496
 Number of independent orbital functions:                                   2496

 Extrapolation method: initial_guess


 SCF WAVEFUNCTION OPTIMIZATION

  Step     Update method      Time    Convergence         Total energy    Change
  ------------------------------------------------------------------------------
     1 NoMix/Diag. 0.10E+00    7.1     0.46286531     -1085.8946863414 -1.09E+03
     2 Broy./Diag. 0.10E+00    9.5     0.00116372     -1044.3873617358  4.15E+01
     3 Broy./Diag. 0.10E+00    9.6     0.01293118     -1076.4963158327 -3.21E+01
     4 Broy./Diag. 0.10E+00    9.7     0.00017178     -1090.1693107511 -1.37E+01
     5 Broy./Diag. 0.10E+00    9.7     0.00117153     -1090.7548836437 -5.86E-01
     6 Broy./Diag. 0.10E+00    9.8     0.00004912     -1091.9287574394 -1.17E+00
     7 Broy./Diag. 0.10E+00    9.9     0.00041634     -1092.4504065293 -5.22E-01
     8 Broy./Diag. 0.10E+00   10.0     0.00002336     -1092.8157962550 -3.65E-01
     9 Broy./Diag. 0.10E+00   10.1     0.00033267     -1092.9899741778 -1.74E-01
    10 Broy./Diag. 0.10E+00   10.2     0.00002516     -1093.2103205340 -2.20E-01
    11 Broy./Diag. 0.10E+00   10.2     0.00033553     -1093.1678251792  4.25E-02
    12 Broy./Diag. 0.10E+00   10.2     0.00001403     -1093.2470274232 -7.92E-02
    13 Broy./Diag. 0.10E+00   10.2     0.00024596     -1093.2828137083 -3.58E-02
    14 Broy./Diag. 0.10E+00   10.2     0.00002570     -1093.3222307304 -3.94E-02
    15 Broy./Diag. 0.10E+00   10.2     0.00017463     -1093.3587382375 -3.65E-02
    16 Broy./Diag. 0.10E+00   10.2     0.00002433     -1093.3767761811 -1.80E-02
    17 Broy./Diag. 0.10E+00   10.2     0.00003444     -1093.3561408660  2.06E-02
    18 Broy./Diag. 0.10E+00   10.3     0.00000664     -1093.3461177362  1.00E-02
    19 Broy./Diag. 0.10E+00   10.3     0.00001285     -1093.3437945835  2.32E-03
    20 Broy./Diag. 0.10E+00   10.3     0.00000372     -1093.3468560324 -3.06E-03
    21 Broy./Diag. 0.10E+00   10.3     0.00000666     -1093.3477314899 -8.75E-04
    22 Broy./Diag. 0.10E+00   10.3     0.00000539     -1093.3513509522 -3.62E-03
    23 Broy./Diag. 0.10E+00   10.3     0.00000289     -1093.3550068728 -3.66E-03
    24 Broy./Diag. 0.10E+00   10.3     0.00001945     -1093.3543415797  6.65E-04
    25 Broy./Diag. 0.10E+00   10.3     0.00000261     -1093.3552321131 -8.91E-04
    26 Broy./Diag. 0.10E+00   10.3     0.00002030     -1093.3563257623 -1.09E-03
    27 Broy./Diag. 0.10E+00   10.3     0.00000331     -1093.3600805239 -3.75E-03
    28 Broy./Diag. 0.10E+00   10.3     0.00000632     -1093.3634998790 -3.42E-03
    29 Broy./Diag. 0.10E+00   10.3     0.00000277     -1093.3651544608 -1.65E-03
    30 Broy./Diag. 0.10E+00   10.2     0.00000213     -1093.3652022039 -4.77E-05
    31 Broy./Diag. 0.10E+00   10.2     0.00000555     -1093.3651065213  9.57E-05
    32 Broy./Diag. 0.10E+00   10.2     0.00000094     -1093.3666894911 -1.58E-03
    33 Broy./Diag. 0.10E+00   10.2     0.00000252     -1093.3660924789  5.97E-04
    34 Broy./Diag. 0.10E+00   10.2     0.00000157     -1093.3668078833 -7.15E-04
    35 Broy./Diag. 0.10E+00   10.2     0.00000215     -1093.3684537772 -1.65E-03
    36 Broy./Diag. 0.10E+00   10.2     0.00000422     -1093.3690927572 -6.39E-04
    37 Broy./Diag. 0.10E+00   10.2     0.00000307     -1093.3688003170  2.92E-04
    38 Broy./Diag. 0.10E+00   10.2     0.00000232     -1093.3680819359  7.18E-04
    39 Broy./Diag. 0.10E+00   10.2     0.00000128     -1093.3680726924  9.24E-06
    40 Broy./Diag. 0.10E+00   10.2     0.00000320     -1093.3690249241 -9.52E-04
    41 Broy./Diag. 0.10E+00   10.2     0.00000068     -1093.3700243347 -9.99E-04
    42 Broy./Diag. 0.10E+00   10.2     0.00000076     -1093.3702634996 -2.39E-04
    43 Broy./Diag. 0.10E+00   10.2     0.00000084     -1093.3704124890 -1.49E-04
    44 Broy./Diag. 0.10E+00   10.2     0.00000065     -1093.3704229408 -1.05E-05
    45 Broy./Diag. 0.10E+00   10.2     0.00000101     -1093.3701542015  2.69E-04
    46 Broy./Diag. 0.10E+00   10.3     0.00000072     -1093.3701759491 -2.17E-05
    47 Broy./Diag. 0.10E+00   10.3     0.00000131     -1093.3703443380 -1.68E-04
    48 Broy./Diag. 0.10E+00   10.3     0.00000063     -1093.3705821137 -2.38E-04
    49 Broy./Diag. 0.10E+00   10.3     0.00000069     -1093.3706785305 -9.64E-05
    50 Broy./Diag. 0.10E+00   10.3     0.00000044     -1093.3706144520  6.41E-05
    51 Broy./Diag. 0.10E+00   10.3     0.00000013     -1093.3705535663  6.09E-05

  *** SCF run converged in    51 steps ***


  Electronic density on regular grids:       -768.0000000000        0.0000000000
  Core density on regular grids:              767.9999999993       -0.0000000007
  Total charge density on r-space grids:       -0.0000000007
  Total charge density g-space grids:          -0.0000000007

  Overlap energy of the core charge distribution:               0.00003001097685
  Self energy of the core charge distribution:              -2560.32152193892080
  Core Hamiltonian energy:                                    801.03299213662740
  Hartree energy:                                            1001.35335971000916
  Exchange-correlation energy:                               -335.18893523893450
  Dispersion energy:                                           -0.24647807669622
  Electronic entropic energy:                                  -0.00000016931932
  Fermi energy:                                                -0.10926141991460

  Total energy:                                             -1093.37055356625751

  outer SCF iter =    1 RMS gradient =   0.13E-06 energy =      -1093.3705535663
  outer SCF loop converged in   1 iterations or   51 steps


  Integrated absolute spin density  :                               0.0000019911
  WARNING: S**2 computation does not yet treat fractional occupied orbitals

 *** WARNING in qs_loc_utils.F:1500 :: User requested the calculation of ***
 *** the localized wavefunction but the section LOCALIZE was not         ***
 *** specified. Localization will not be performed!                      ***


 -------------------------------------------------------------------------------
 -                                                                             -
 -  BSSE CALCULATION         FRAGMENT CONF: 01        FRAGMENT SUBCONF: 01     -
 -                           CHARGE =     1           MULTIPLICITY =     1     -
 -                                                                             -
 -                 ATOM INDEX                              ATOM NAME           -
 -                 ----------                              ---------           -
 -                    193                                   Na                 -
 -------------------------------------------------------------------------------

 *******************************************************************************
 *******************************************************************************
 **                                                                           **
 **     #####                         ##              ##                      **
 **    ##   ##            ##          ##              ##                      **
 **   ##     ##                       ##            ######                    **
 **   ##     ##  ##   ##  ##   #####  ##  ##   ####   ##    #####    #####    **
 **   ##     ##  ##   ##  ##  ##      ## ##   ##      ##   ##   ##  ##   ##   **
 **   ##  ## ##  ##   ##  ##  ##      ####     ###    ##   ######   ######    **
 **    ##  ###   ##   ##  ##  ##      ## ##      ##   ##   ##       ##        **
 **     #######   #####   ##   #####  ##  ##  ####    ##    #####   ##        **
 **           ##                                                    ##        **
 **                                                                           **
 **                                                ... make the atoms dance   **
 **                                                                           **
 **            Copyright (C) by CP2K developers group (2000-2022)             **
 **                      J. Chem. Phys. 152, 194103 (2020)                    **
 **                                                                           **
 *******************************************************************************

 *** WARNING in qs_environment.F:1470 :: More ADDED_MOs requested for beta ***
 *** spin than available.                                                  ***


 *** WARNING in qs_environment.F:1486 :: More added MOs requested than     ***
 *** available. The full set of unoccupied MOs will be used. Use           ***
 *** 'ADDED_MOS -1' to always use all available MOs and to get rid of this ***
 *** warning.                                                              ***



 TOTAL NUMBERS AND MAXIMUM NUMBERS

  Total number of            - Atomic kinds:                                   1
                             - Atoms:                                          1
                             - Shell sets:                                     1
                             - Shells:                                         5
                             - Primitive Cartesian functions:                  7
                             - Cartesian basis functions:                      9
                             - Spherical basis functions:                      9

  Maximum angular momentum of- Orbital basis functions:                        1
                             - Local part of the GTH pseudopotential:          2
                             - Non-local part of the GTH pseudopotential:      1


 SCF PARAMETERS         Density guess:                                    ATOMIC
                        --------------------------------------------------------
                        max_scf:                                             300
                        max_scf_history:                                       0
                        max_diis:                                              4
                        --------------------------------------------------------
                        eps_scf:                                        3.00E-07
                        eps_scf_history:                                0.00E+00
                        eps_diis:                                       1.00E-01
                        eps_eigval:                                     1.00E-05
                        --------------------------------------------------------
                        level_shift [a.u.]:                             0.000000
                        added MOs                                         5    5
                        --------------------------------------------------------
                        Mixing method:                            BROYDEN_MIXING
                                                charge density mixing in g-space
                        --------------------------------------------------------
                        Smear method:                                FERMI_DIRAC
                        Electronic temperature [K]:                        300.0
                        Electronic temperature [a.u.]:                  9.50E-04
                        Accuracy threshold:                             1.00E-10
                        --------------------------------------------------------
                        Outer loop SCF in use 
                        No variables optimised in outer loop
                        eps_scf                                         1.00E-06
                        max_scf                                              300
                        DIIS optimization
                        DIIS buffer length                                     3
                        step_size                                       5.00E-01

 Spin 1

 Number of electrons:                                                          4
 Number of occupied orbitals:                                                  4
 Number of molecular orbitals:                                                 9

 Spin 2

 Number of electrons:                                                          4
 Number of occupied orbitals:                                                  4
 Number of molecular orbitals:                                                 9

 Number of orbital functions:                                                  9
 Number of independent orbital functions:                                      9

 Extrapolation method: initial_guess


 SCF WAVEFUNCTION OPTIMIZATION

  Step     Update method      Time    Convergence         Total energy    Change
  ------------------------------------------------------------------------------
     1 NoMix/Diag. 0.10E+00    1.1     0.44565829       -45.5632051613 -4.56E+01
     2 Broy./Diag. 0.10E+00    2.4     0.00220096       -42.1150010210  3.45E+00
     3 Broy./Diag. 0.10E+00    2.6     0.02832156       -45.9051857464 -3.79E+00
     4 Broy./Diag. 0.10E+00    2.6     0.00009372       -46.2836078567 -3.78E-01
     5 Broy./Diag. 0.10E+00    2.7     0.00556270       -46.7126573611 -4.29E-01
     6 Broy./Diag. 0.10E+00    2.7     0.00028645       -46.7953493691 -8.27E-02
     7 Broy./Diag. 0.10E+00    2.8     0.00354298       -46.8754023228 -8.01E-02
     8 Broy./Diag. 0.10E+00    2.9     0.00031145       -46.9324625650 -5.71E-02
     9 Broy./Diag. 0.10E+00    3.0     0.00219259       -46.9542928351 -2.18E-02
    10 Broy./Diag. 0.10E+00    3.1     0.00018392       -46.9814322718 -2.71E-02
    11 Broy./Diag. 0.10E+00    3.1     0.00110620       -46.9808771057  5.55E-04
    12 Broy./Diag. 0.10E+00    3.1     0.00007913       -46.9919273318 -1.11E-02
    13 Broy./Diag. 0.10E+00    3.1     0.00015223       -46.9981544406 -6.23E-03
    14 Broy./Diag. 0.10E+00    3.1     0.00005022       -47.0021686300 -4.01E-03
    15 Broy./Diag. 0.10E+00    3.1     0.00026828       -47.0020357547  1.33E-04
    16 Broy./Diag. 0.10E+00    3.1     0.00004618       -47.0033934076 -1.36E-03
    17 Broy./Diag. 0.10E+00    3.1     0.00006079       -47.0058629339 -2.47E-03
    18 Broy./Diag. 0.10E+00    3.1     0.00014211       -47.0034423182  2.42E-03
    19 Broy./Diag. 0.10E+00    3.1     0.00005745       -47.0020892674  1.35E-03
    20 Broy./Diag. 0.10E+00    3.1     0.00003239       -47.0036143413 -1.53E-03
    21 Broy./Diag. 0.10E+00    3.1     0.00003081       -47.0035226172  9.17E-05
    22 Broy./Diag. 0.10E+00    3.1     0.00004433       -47.0024960555  1.03E-03
    23 Broy./Diag. 0.10E+00    3.1     0.00003628       -47.0026016497 -1.06E-04
    24 Broy./Diag. 0.10E+00    3.1     0.00001816       -47.0036697829 -1.07E-03
    25 Broy./Diag. 0.10E+00    3.1     0.00001535       -47.0036660828  3.70E-06
    26 Broy./Diag. 0.10E+00    3.1     0.00002647       -47.0034747852  1.91E-04
    27 Broy./Diag. 0.10E+00    3.1     0.00001318       -47.0038223389 -3.48E-04
    28 Broy./Diag. 0.10E+00    3.1     0.00004719       -47.0038560363 -3.37E-05
    29 Broy./Diag. 0.10E+00    3.1     0.00000061       -47.0034852502  3.71E-04
    30 Broy./Diag. 0.10E+00    3.1     0.00001660       -47.0033627313  1.23E-04
    31 Broy./Diag. 0.10E+00    3.1     0.00000609       -47.0032784090  8.43E-05
    32 Broy./Diag. 0.10E+00    3.1     0.00000905       -47.0034195657 -1.41E-04
    33 Broy./Diag. 0.10E+00    3.1     0.00000185       -47.0035928479 -1.73E-04
    34 Broy./Diag. 0.10E+00    3.1     0.00000592       -47.0034212188  1.72E-04
    35 Broy./Diag. 0.10E+00    3.1     0.00000274       -47.0034311819 -9.96E-06
    36 Broy./Diag. 0.10E+00    3.1     0.00000522       -47.0034702549 -3.91E-05
    37 Broy./Diag. 0.10E+00    3.1     0.00000376       -47.0033987505  7.15E-05
    38 Broy./Diag. 0.10E+00    3.1     0.00000741       -47.0033791433  1.96E-05
    39 Broy./Diag. 0.10E+00    3.1     0.00000226       -47.0034131030 -3.40E-05
    40 Broy./Diag. 0.10E+00    3.1     0.00000198       -47.0034239844 -1.09E-05
    41 Broy./Diag. 0.10E+00    3.1     0.00000052       -47.0034908953 -6.69E-05
    42 Broy./Diag. 0.10E+00    3.2     0.00000175       -47.0034724857  1.84E-05
    43 Broy./Diag. 0.10E+00    3.1     0.00000063       -47.0034577913  1.47E-05
    44 Broy./Diag. 0.10E+00    3.1     0.00000055       -47.0034668398 -9.05E-06
    45 Broy./Diag. 0.10E+00    3.1     0.00000007       -47.0034650533  1.79E-06

  *** SCF run converged in    45 steps ***


  Electronic density on regular grids:         -8.0003997749       -0.0003997749
  Core density on regular grids:                9.0000000000       -0.0000000000
  Total charge density on r-space grids:        0.9996002251
  Total charge density g-space grids:           0.9996002251

  Overlap energy of the core charge distribution:               0.00000000000000
  Self energy of the core charge distribution:                -96.60649019442629
  Core Hamiltonian energy:                                     29.59544146064840
  Hartree energy:                                              26.91412715564598
  Exchange-correlation energy:                                 -6.90653487854020
  Dispersion energy:                                           -0.00000859667287
  Electronic entropic energy:                                  -0.00000000000000
  Fermi energy:                                                -0.24358286396246

  Total energy:                                               -47.00346505334498

  outer SCF iter =    1 RMS gradient =   0.71E-07 energy =        -47.0034650533
  outer SCF loop converged in   1 iterations or   45 steps


  Integrated absolute spin density  :                               0.0000000000
  WARNING: S**2 computation does not yet treat fractional occupied orbitals

 *** WARNING in qs_loc_utils.F:1500 :: User requested the calculation of ***
 *** the localized wavefunction but the section LOCALIZE was not         ***
 *** specified. Localization will not be performed!                      ***


 -------------------------------------------------------------------------------
 -                                                                             -
 -  BSSE CALCULATION         FRAGMENT CONF: 11        FRAGMENT SUBCONF: 10     -
 -                           CHARGE =     0           MULTIPLICITY =     1     -
 -                                                                             -
 -                 ATOM INDEX                              ATOM NAME           -
 -                 ----------                              ---------           -
 -                      1                                   C                  -
 -                      2                                   C                  -
 -                      3                                   C                  -
 -                      4                                   C                  -
 -                      5                                   C                  -
 -                      6                                   C                  -
 -                      7                                   C                  -
 -                      8                                   C                  -
 -                      9                                   C                  -
 -                     10                                   C                  -
 -                     11                                   C                  -
 -                     12                                   C                  -
 -                     13                                   C                  -
 -                     14                                   C                  -
 -                     15                                   C                  -
 -                     16                                   C                  -
 -                     17                                   C                  -
 -                     18                                   C                  -
 -                     19                                   C                  -
 -                     20                                   C                  -
 -                     21                                   C                  -
 -                     22                                   C                  -
 -                     23                                   C                  -
 -                     24                                   C                  -
 -                     25                                   C                  -
 -                     26                                   C                  -
 -                     27                                   C                  -
 -                     28                                   C                  -
 -                     29                                   C                  -
 -                     30                                   C                  -
 -                     31                                   C                  -
 -                     32                                   C                  -
 -                     33                                   C                  -
 -                     34                                   C                  -
 -                     35                                   C                  -
 -                     36                                   C                  -
 -                     37                                   C                  -
 -                     38                                   C                  -
 -                     39                                   C                  -
 -                     40                                   C                  -
 -                     41                                   C                  -
 -                     42                                   C                  -
 -                     43                                   C                  -
 -                     44                                   C                  -
 -                     45                                   C                  -
 -                     46                                   C                  -
 -                     47                                   C                  -
 -                     48                                   C                  -
 -                     49                                   C                  -
 -                     50                                   C                  -
 -                     51                                   C                  -
 -                     52                                   C                  -
 -                     53                                   C                  -
 -                     54                                   C                  -
 -                     55                                   C                  -
 -                     56                                   C                  -
 -                     57                                   C                  -
 -                     58                                   C                  -
 -                     59                                   C                  -
 -                     60                                   C                  -
 -                     61                                   C                  -
 -                     62                                   C                  -
 -                     63                                   C                  -
 -                     64                                   C                  -
 -                     65                                   C                  -
 -                     66                                   C                  -
 -                     67                                   C                  -
 -                     68                                   C                  -
 -                     69                                   C                  -
 -                     70                                   C                  -
 -                     71                                   C                  -
 -                     72                                   C                  -
 -                     73                                   C                  -
 -                     74                                   C                  -
 -                     75                                   C                  -
 -                     76                                   C                  -
 -                     77                                   C                  -
 -                     78                                   C                  -
 -                     79                                   C                  -
 -                     80                                   C                  -
 -                     81                                   C                  -
 -                     82                                   C                  -
 -                     83                                   C                  -
 -                     84                                   C                  -
 -                     85                                   C                  -
 -                     86                                   C                  -
 -                     87                                   C                  -
 -                     88                                   C                  -
 -                     89                                   C                  -
 -                     90                                   C                  -
 -                     91                                   C                  -
 -                     92                                   C                  -
 -                     93                                   C                  -
 -                     94                                   C                  -
 -                     95                                   C                  -
 -                     96                                   C                  -
 -                     97                                   C                  -
 -                     98                                   C                  -
 -                     99                                   C                  -
 -                    100                                   C                  -
 -                    101                                   C                  -
 -                    102                                   C                  -
 -                    103                                   C                  -
 -                    104                                   C                  -
 -                    105                                   C                  -
 -                    106                                   C                  -
 -                    107                                   C                  -
 -                    108                                   C                  -
 -                    109                                   C                  -
 -                    110                                   C                  -
 -                    111                                   C                  -
 -                    112                                   C                  -
 -                    113                                   C                  -
 -                    114                                   C                  -
 -                    115                                   C                  -
 -                    116                                   C                  -
 -                    117                                   C                  -
 -                    118                                   C                  -
 -                    119                                   C                  -
 -                    120                                   C                  -
 -                    121                                   C                  -
 -                    122                                   C                  -
 -                    123                                   C                  -
 -                    124                                   C                  -
 -                    125                                   C                  -
 -                    126                                   C                  -
 -                    127                                   C                  -
 -                    128                                   C                  -
 -                    129                                   C                  -
 -                    130                                   C                  -
 -                    131                                   C                  -
 -                    132                                   C                  -
 -                    133                                   C                  -
 -                    134                                   C                  -
 -                    135                                   C                  -
 -                    136                                   C                  -
 -                    137                                   C                  -
 -                    138                                   C                  -
 -                    139                                   C                  -
 -                    140                                   C                  -
 -                    141                                   C                  -
 -                    142                                   C                  -
 -                    143                                   C                  -
 -                    144                                   C                  -
 -                    145                                   C                  -
 -                    146                                   C                  -
 -                    147                                   C                  -
 -                    148                                   C                  -
 -                    149                                   C                  -
 -                    150                                   C                  -
 -                    151                                   C                  -
 -                    152                                   C                  -
 -                    153                                   C                  -
 -                    154                                   C                  -
 -                    155                                   C                  -
 -                    156                                   C                  -
 -                    157                                   C                  -
 -                    158                                   C                  -
 -                    159                                   C                  -
 -                    160                                   C                  -
 -                    161                                   C                  -
 -                    162                                   C                  -
 -                    163                                   C                  -
 -                    164                                   C                  -
 -                    165                                   C                  -
 -                    166                                   C                  -
 -                    167                                   C                  -
 -                    168                                   C                  -
 -                    169                                   C                  -
 -                    170                                   C                  -
 -                    171                                   C                  -
 -                    172                                   C                  -
 -                    173                                   C                  -
 -                    174                                   C                  -
 -                    175                                   C                  -
 -                    176                                   C                  -
 -                    177                                   C                  -
 -                    178                                   C                  -
 -                    179                                   C                  -
 -                    180                                   C                  -
 -                    181                                   C                  -
 -                    182                                   C                  -
 -                    183                                   C                  -
 -                    184                                   C                  -
 -                    185                                   C                  -
 -                    186                                   C                  -
 -                    187                                   C                  -
 -                    188                                   C                  -
 -                    189                                   C                  -
 -                    190                                   C                  -
 -                    191                                   C                  -
 -                    192                                   C                  -
 -                    193                                   Na_ghost           -
 -------------------------------------------------------------------------------

 *******************************************************************************
 *******************************************************************************
 **                                                                           **
 **     #####                         ##              ##                      **
 **    ##   ##            ##          ##              ##                      **
 **   ##     ##                       ##            ######                    **
 **   ##     ##  ##   ##  ##   #####  ##  ##   ####   ##    #####    #####    **
 **   ##     ##  ##   ##  ##  ##      ## ##   ##      ##   ##   ##  ##   ##   **
 **   ##  ## ##  ##   ##  ##  ##      ####     ###    ##   ######   ######    **
 **    ##  ###   ##   ##  ##  ##      ## ##      ##   ##   ##       ##        **
 **     #######   #####   ##   #####  ##  ##  ####    ##    #####   ##        **
 **           ##                                                    ##        **
 **                                                                           **
 **                                                ... make the atoms dance   **
 **                                                                           **
 **            Copyright (C) by CP2K developers group (2000-2022)             **
 **                      J. Chem. Phys. 152, 194103 (2020)                    **
 **                                                                           **
 *******************************************************************************


 TOTAL NUMBERS AND MAXIMUM NUMBERS

  Total number of            - Atomic kinds:                                   2
                             - Atoms:                                        193
                             - Shell sets:                                   193
                             - Shells:                                       965
                             - Primitive Cartesian functions:                967
                             - Cartesian basis functions:                   2697
                             - Spherical basis functions:                   2505

  Maximum angular momentum of- Orbital basis functions:                        2
                             - Local part of the GTH pseudopotential:          2
                             - Non-local part of the GTH pseudopotential:      0


 SCF PARAMETERS         Density guess:                                    ATOMIC
                        --------------------------------------------------------
                        max_scf:                                             300
                        max_scf_history:                                       0
                        max_diis:                                              4
                        --------------------------------------------------------
                        eps_scf:                                        3.00E-07
                        eps_scf_history:                                0.00E+00
                        eps_diis:                                       1.00E-01
                        eps_eigval:                                     1.00E-05
                        --------------------------------------------------------
                        level_shift [a.u.]:                             0.000000
                        added MOs                                       100  100
                        --------------------------------------------------------
                        Mixing method:                            BROYDEN_MIXING
                                                charge density mixing in g-space
                        --------------------------------------------------------
                        Smear method:                                FERMI_DIRAC
                        Electronic temperature [K]:                        300.0
                        Electronic temperature [a.u.]:                  9.50E-04
                        Accuracy threshold:                             1.00E-10
                        --------------------------------------------------------
                        Outer loop SCF in use 
                        No variables optimised in outer loop
                        eps_scf                                         1.00E-06
                        max_scf                                              300
                        DIIS optimization
                        DIIS buffer length                                     3
                        step_size                                       5.00E-01

 Spin 1

 Number of electrons:                                                        384
 Number of occupied orbitals:                                                384
 Number of molecular orbitals:                                               484

 Spin 2

 Number of electrons:                                                        384
 Number of occupied orbitals:                                                384
 Number of molecular orbitals:                                               484

 Number of orbital functions:                                               2505
 Number of independent orbital functions:                                   2505

 Extrapolation method: initial_guess


 SCF WAVEFUNCTION OPTIMIZATION

  Step     Update method      Time    Convergence         Total energy    Change
  ------------------------------------------------------------------------------
     1 NoMix/Diag. 0.10E+00    7.1     0.46300773     -1085.8946863414 -1.09E+03
     2 Broy./Diag. 0.10E+00    9.6     0.00116727     -1044.3845989384  4.15E+01
     3 Broy./Diag. 0.10E+00    9.7     0.01297391     -1076.4902521051 -3.21E+01
     4 Broy./Diag. 0.10E+00    9.7     0.00017179     -1090.1685419574 -1.37E+01
     5 Broy./Diag. 0.10E+00    9.8     0.00117271     -1090.7535439929 -5.85E-01
     6 Broy./Diag. 0.10E+00    9.9     0.00004931     -1091.9286380421 -1.18E+00
     7 Broy./Diag. 0.10E+00   10.0     0.00041295     -1092.4504879190 -5.22E-01
     8 Broy./Diag. 0.10E+00   10.0     0.00002362     -1092.8166164650 -3.66E-01
     9 Broy./Diag. 0.10E+00   10.2     0.00033096     -1092.9907657972 -1.74E-01
    10 Broy./Diag. 0.10E+00   10.3     0.00002508     -1093.2116083581 -2.21E-01
    11 Broy./Diag. 0.10E+00   10.3     0.00032366     -1093.1688253005  4.28E-02
    12 Broy./Diag. 0.10E+00   10.3     0.00001406     -1093.2480661838 -7.92E-02
    13 Broy./Diag. 0.10E+00   10.3     0.00023847     -1093.2840417728 -3.60E-02
    14 Broy./Diag. 0.10E+00   10.3     0.00002563     -1093.3234755107 -3.94E-02
    15 Broy./Diag. 0.10E+00   10.3     0.00017045     -1093.3599809737 -3.65E-02
    16 Broy./Diag. 0.10E+00   10.3     0.00002380     -1093.3779522808 -1.80E-02
    17 Broy./Diag. 0.10E+00   10.3     0.00003363     -1093.3571838439  2.08E-02
    18 Broy./Diag. 0.10E+00   10.3     0.00000668     -1093.3472183236  9.97E-03
    19 Broy./Diag. 0.10E+00   10.3     0.00001490     -1093.3455051751  1.71E-03
    20 Broy./Diag. 0.10E+00   10.3     0.00000321     -1093.3495463058 -4.04E-03
    21 Broy./Diag. 0.10E+00   10.3     0.00000746     -1093.3511188542 -1.57E-03
    22 Broy./Diag. 0.10E+00   10.3     0.00000521     -1093.3549047073 -3.79E-03
    23 Broy./Diag. 0.10E+00   10.3     0.00000246     -1093.3586142701 -3.71E-03
    24 Broy./Diag. 0.10E+00   10.3     0.00002128     -1093.3580934995  5.21E-04
    25 Broy./Diag. 0.10E+00   10.3     0.00000398     -1093.3597970185 -1.70E-03
    26 Broy./Diag. 0.10E+00   10.3     0.00001635     -1093.3606303630 -8.33E-04
    27 Broy./Diag. 0.10E+00   10.3     0.00000412     -1093.3629244292 -2.29E-03
    28 Broy./Diag. 0.10E+00   10.3     0.00000566     -1093.3658484000 -2.92E-03
    29 Broy./Diag. 0.10E+00   10.3     0.00000178     -1093.3672759316 -1.43E-03
    30 Broy./Diag. 0.10E+00   10.3     0.00000218     -1093.3672102661  6.57E-05
    31 Broy./Diag. 0.10E+00   10.3     0.00000458     -1093.3670364013  1.74E-04
    32 Broy./Diag. 0.10E+00   10.3     0.00000085     -1093.3681187194 -1.08E-03
    33 Broy./Diag. 0.10E+00   10.3     0.00000230     -1093.3675445988  5.74E-04
    34 Broy./Diag. 0.10E+00   10.3     0.00000105     -1093.3678984335 -3.54E-04
    35 Broy./Diag. 0.10E+00   10.3     0.00000290     -1093.3693531312 -1.45E-03
    36 Broy./Diag. 0.10E+00   10.3     0.00000228     -1093.3699554568 -6.02E-04
    37 Broy./Diag. 0.10E+00   10.3     0.00000507     -1093.3698913202  6.41E-05
    38 Broy./Diag. 0.10E+00   10.3     0.00000135     -1093.3695793274  3.12E-04
    39 Broy./Diag. 0.10E+00   10.3     0.00000154     -1093.3694581606  1.21E-04
    40 Broy./Diag. 0.10E+00   10.3     0.00000278     -1093.3701999301 -7.42E-04
    41 Broy./Diag. 0.10E+00   10.3     0.00000061     -1093.3710520725 -8.52E-04
    42 Broy./Diag. 0.10E+00   10.3     0.00000086     -1093.3713858263 -3.34E-04
    43 Broy./Diag. 0.10E+00   10.3     0.00000054     -1093.3715375658 -1.52E-04
    44 Broy./Diag. 0.10E+00   10.3     0.00000060     -1093.3715889394 -5.14E-05
    45 Broy./Diag. 0.10E+00   10.3     0.00000069     -1093.3714222254  1.67E-04
    46 Broy./Diag. 0.10E+00   10.3     0.00000049     -1093.3713617926  6.04E-05
    47 Broy./Diag. 0.10E+00   10.3     0.00000142     -1093.3714248037 -6.30E-05
    48 Broy./Diag. 0.10E+00   10.3     0.00000049     -1093.3715941000 -1.69E-04
    49 Broy./Diag. 0.10E+00   10.3     0.00000104     -1093.3717421952 -1.48E-04
    50 Broy./Diag. 0.10E+00   10.3     0.00000034     -1093.3717212856  2.09E-05
    51 Broy./Diag. 0.10E+00   10.3     0.00000018     -1093.3716574167  6.39E-05

  *** SCF run converged in    51 steps ***


  Electronic density on regular grids:       -767.9999999984        0.0000000016
  Core density on regular grids:              767.9999999993       -0.0000000007
  Total charge density on r-space grids:        0.0000000009
  Total charge density g-space grids:           0.0000000009

  Overlap energy of the core charge distribution:               0.00003001097685
  Self energy of the core charge distribution:              -2560.32152193892080
  Core Hamiltonian energy:                                    801.02691801810477
  Hartree energy:                                            1001.35865717955448
  Exchange-correlation energy:                               -335.18926244033253
  Dispersion energy:                                           -0.24647807669622
  Electronic entropic energy:                                  -0.00000016935892
  Fermi energy:                                                -0.10923421738984

  Total energy:                                             -1093.37165741667241

  outer SCF iter =    1 RMS gradient =   0.18E-06 energy =      -1093.3716574167
  outer SCF loop converged in   1 iterations or   51 steps


  Integrated absolute spin density  :                               0.0000020812
  WARNING: S**2 computation does not yet treat fractional occupied orbitals

 *** WARNING in qs_loc_utils.F:1500 :: User requested the calculation of ***
 *** the localized wavefunction but the section LOCALIZE was not         ***
 *** specified. Localization will not be performed!                      ***


 -------------------------------------------------------------------------------
 -                                                                             -
 -  BSSE CALCULATION         FRAGMENT CONF: 11        FRAGMENT SUBCONF: 01     -
 -                           CHARGE =     1           MULTIPLICITY =     1     -
 -                                                                             -
 -                 ATOM INDEX                              ATOM NAME           -
 -                 ----------                              ---------           -
 -                      1                                   C_ghost            -
 -                      2                                   C_ghost            -
 -                      3                                   C_ghost            -
 -                      4                                   C_ghost            -
 -                      5                                   C_ghost            -
 -                      6                                   C_ghost            -
 -                      7                                   C_ghost            -
 -                      8                                   C_ghost            -
 -                      9                                   C_ghost            -
 -                     10                                   C_ghost            -
 -                     11                                   C_ghost            -
 -                     12                                   C_ghost            -
 -                     13                                   C_ghost            -
 -                     14                                   C_ghost            -
 -                     15                                   C_ghost            -
 -                     16                                   C_ghost            -
 -                     17                                   C_ghost            -
 -                     18                                   C_ghost            -
 -                     19                                   C_ghost            -
 -                     20                                   C_ghost            -
 -                     21                                   C_ghost            -
 -                     22                                   C_ghost            -
 -                     23                                   C_ghost            -
 -                     24                                   C_ghost            -
 -                     25                                   C_ghost            -
 -                     26                                   C_ghost            -
 -                     27                                   C_ghost            -
[...]
    36 Broy./Diag. 0.10E+00   10.3     0.00000163     -1140.4789348285 -4.02E-04
    37 Broy./Diag. 0.10E+00   10.3     0.00000502     -1140.4793915688 -4.57E-04
    38 Broy./Diag. 0.10E+00   10.3     0.00000081     -1140.4795507289 -1.59E-04
    39 Broy./Diag. 0.10E+00   10.3     0.00000314     -1140.4794207473  1.30E-04
    40 Broy./Diag. 0.10E+00   10.3     0.00000053     -1140.4793297081  9.10E-05
    41 Broy./Diag. 0.10E+00   10.3     0.00000191     -1140.4793139808  1.57E-05
    42 Broy./Diag. 0.10E+00   10.3     0.00000016     -1140.4793242953 -1.03E-05

  *** SCF run converged in    42 steps ***


  Electronic density on regular grids:       -776.0004003372       -0.0004003372
  Core density on regular grids:              776.9999999993       -0.0000000007
  Total charge density on r-space grids:        0.9995996621
  Total charge density g-space grids:           0.9995996621

  Overlap energy of the core charge distribution:               0.00003001097685
  Self energy of the core charge distribution:              -2656.92801213334678
  Core Hamiltonian energy:                                    830.63985208294537
  Hartree energy:                                            1028.14941436077925
  Exchange-correlation energy:                               -342.09099125134776
  Dispersion energy:                                           -0.24961717150306
  Electronic entropic energy:                                  -0.00000019377338
  Fermi energy:                                                -0.12147737999007

  Total energy:                                             -1140.47932429526986

  outer SCF iter =    1 RMS gradient =   0.16E-06 energy =      -1140.4793242953
  outer SCF loop converged in   1 iterations or   42 steps


  Integrated absolute spin density  :                               0.0000002377
  WARNING: S**2 computation does not yet treat fractional occupied orbitals

 *** WARNING in qs_loc_utils.F:1500 :: User requested the calculation of ***
 *** the localized wavefunction but the section LOCALIZE was not         ***
 *** specified. Localization will not be performed!                      ***


 -------------------------------------------------------------------------------
 -                                                                             -
 -                                 BSSE RESULTS                                -
 -                                                                             -
 -                 CP-corrected Total energy:    -1140.478186                  -
 -                                                                             -
 -                       1-body contribution:    -1093.370554                  -
 -                       1-body contribution:      -47.003465                  -
 -                                                                             -
 -                       2-body contribution:       -0.104168                  -
 -                 BSSE-free interaction energy:       -0.104168               -
 -------------------------------------------------------------------------------

 -------------------------------------------------------------------------------
 -                                                                             -
 -                                DBCSR STATISTICS                             -
 -                                                                             -
 -------------------------------------------------------------------------------
 COUNTER                                    TOTAL       BLAS       SMM       ACC
 flops     9 x     9 x     8               127008     100.0%      0.0%      0.0%
 flops     9 x     9 x     9               131220     100.0%      0.0%      0.0%
 flops     9 x     9 x   104              1415232     100.0%      0.0%      0.0%
 flops     9 x     9 x    32              1524096     100.0%      0.0%      0.0%
 flops     9 x     9 x   100              1652400     100.0%      0.0%      0.0%
 flops     9 x     9 x   128             11570688     100.0%      0.0%      0.0%
 flops    13 x     9 x     8             12475008     100.0%      0.0%      0.0%
 flops     9 x    13 x     8             13575744     100.0%      0.0%      0.0%
 flops    13 x     9 x   104            139007232     100.0%      0.0%      0.0%
 flops    13 x     9 x    32            149700096     100.0%      0.0%      0.0%
 flops     9 x    13 x   104            151272576     100.0%      0.0%      0.0%
 flops    13 x     9 x   100            162302400     100.0%      0.0%      0.0%
 flops     9 x    13 x    32            162908928     100.0%      0.0%      0.0%
 flops     9 x    13 x   100            176623200     100.0%      0.0%      0.0%
 flops    13 x     9 x   128           1136498688     100.0%      0.0%      0.0%
 flops     9 x    13 x   128           1236777984     100.0%      0.0%      0.0%
 flops    13 x    13 x     8           3044758080     100.0%      0.0%      0.0%
 flops    13 x    13 x   104          33927304320     100.0%      0.0%      0.0%
 flops    13 x    13 x    32          36537096960     100.0%      0.0%      0.0%
 flops    13 x    13 x   100          79225848000     100.0%      0.0%      0.0%
 flops    13 x    13 x   128         429497303040     100.0%      0.0%      0.0%
 flops inhomo. stacks                           0       0.0%      0.0%      0.0%
 flops total                       585.589873E+09     100.0%      0.0%      0.0%
 flops max/rank                     38.111711E+09     100.0%      0.0%      0.0%
 matmuls inhomo. stacks                         0       0.0%      0.0%      0.0%
 matmuls total                           17903098     100.0%      0.0%      0.0%
 number of processed stacks                 33882     100.0%      0.0%      0.0%
 average stack size                                   528.4       0.0       0.0
 marketing flops                     1.407966E+12
 -------------------------------------------------------------------------------
 # multiplications                            476
 max memory usage/rank               1.254818E+09
 # max total images/rank                        1
 # max 3D layers                                1
 # MPI messages exchanged                   45696
 MPI messages size (bytes):
  total size                        18.005398E+09
  min size                           0.000000E+00
  max size                         648.192000E+03
  average size                     394.025688E+03
 MPI breakdown and total messages size (bytes):
             size <=      128                8100                        0
       128 < size <=     8192                 540                   349920
      8192 < size <=    32768                   0                        0
     32768 < size <=   131072                2352                 94268160
    131072 < size <=  4194304               34704              17910785664
   4194304 < size <= 16777216                   0                        0
  16777216 < size                               0                        0
 -------------------------------------------------------------------------------
 -                                                                             -
 -                      DBCSR MESSAGE PASSING PERFORMANCE                      -
 -                                                                             -
 -------------------------------------------------------------------------------
 ROUTINE             CALLS      AVE VOLUME [Bytes]
 MP_Bcast               22                     12.
 MP_Allreduce         3403                      8.
 MP_Alltoall         13388                 438102.
 MP_ISend             7616                 159719.
 MP_IRecv             7616                 146353.
 -------------------------------------------------------------------------------

 -------------------------------------------------------------------------------
 -                                                                             -
 -                                DBM STATISTICS                               -
 -                                                                             -
 -------------------------------------------------------------------------------
    M  x    N  x    K                                          COUNT     PERCENT
 -------------------------------------------------------------------------------

 -------------------------------------------------------------------------------
 -                                                                             -
 -                                GRID STATISTICS                              -
 -                                                                             -
 -------------------------------------------------------------------------------
 LP    KERNEL             BACKEND                              COUNT     PERCENT
 4     collocate ortho    REF                               45438050      50.05%
 4     integrate ortho    REF                               44515450      49.03%
 3     collocate ortho    REF                                 398460       0.44%
 3     integrate ortho    REF                                 390216       0.43%
 2     collocate ortho    REF                                  19482       0.02%
 2     integrate ortho    REF                                  19074       0.02%
 0     collocate general  REF                                   9264       0.01%
 -------------------------------------------------------------------------------

 MEMORY| Estimated peak process memory [MiB]                                1197

 -------------------------------------------------------------------------------
 -                                                                             -
 -                         MESSAGE PASSING PERFORMANCE                         -
 -                                                                             -
 -------------------------------------------------------------------------------

 ROUTINE             CALLS      AVE VOLUME [Bytes]
 MP_Group               24
 MP_Bcast              867                1114345.
 MP_Allreduce         5356                    932.
 MP_Sync               590
 MP_Alltoall          6075               22446279.
 MP_SendRecv         20292                 213452.
 MP_ISendRecv        14280                 161680.
 MP_Wait             35499
 MP_comm_split          90
 MP_ISend            15432                1387529.
 MP_IRecv            15432                1387509.
 MP_Recv               300                 607732.
 -------------------------------------------------------------------------------


 -------------------------------------------------------------------------------
 -                                                                             -
 -                           R E F E R E N C E S                               -
 -                                                                             -
 -------------------------------------------------------------------------------
 
 CP2K version 2023.1, the CP2K developers group (2023).
 CP2K is freely available from https://www.cp2k.org/ .

 Kuehne,Thomas D.; Iannuzzi,Marcella; Del Ben,Mauro;
 Rybkin,Vladimir V.; Seewald,Patrick; Stein,Frederick; Laino,Teodoro;
 Khaliullin,Rustam Z.; Schuett,Ole; Schiffmann,Florian; Golze,Dorothea;
 Wilhelm,Jan; Chulkov,Sergey; Bani-Hashemian,Mohammad Hossein;
 Weber,Valery; Borstnik,Urban; Taillefumier,Mathieu;
 Jakobovits,Alice Shoshana; Lazzaro,Alfio; Pabst,Hans; Mueller,Tiziano;
 Schade,Robert; Guidon,Manuel; Andermatt,Samuel; Holmberg,Nico;
 Schenter,Gregory K.; Hehn,Anna; Bussy,Augustin; Belleflamme,Fabian;
 Tabacchi,Gloria; Gloess,Andreas; Lass,Michael; Bethune,Iain;
 Mundy,Christopher J.; Plessl,Christian; Watkins,Matt;
 VandeVondele,Joost; Krack,Matthias; Hutter,Juerg. 
 The Journal of Chemical Physics, 152 (19), (2020). 
 CP2K: An electronic structure and molecular dynamics software package -
 Quickstep: Efficient and accurate electronic structure calculations.
 https://doi.org/10.1063/5.0007045

 Goerigk, Lars; Hansen, Andreas; Bauer, Christoph; Ehrlich, Stephan;
 Najibi, Asim; Grimme, Stefan. , 19 (48), (2017). 
 A look at the density functional theory zoo with the advanced GMTKN55 database
 for general main group thermochemistry, kinetics and noncovalent interactions.
 https://doi.org/10.1039/C7CP04913G

 Schuett, Ole; Messmer, Peter; Hutter, Juerg; VandeVondele, Joost. 
 Electronic Structure Calculations on Graphics Processing Units, John
 Wiley & Sons, Ltd, 173-190 (2016). 
 GPU-Accelerated Sparse Matrix-Matrix Multiplication for
 Linear Scaling Density Functional Theory.
 https://doi.org/10.1002/9781118670712.ch8

 Borstnik, U; VandeVondele, J; Weber, V; Hutter, J. 
 PARALLEL COMPUTING, 40 (5-6), 47-58 (2014). 
 Sparse matrix multiplication: The distributed block-compressed sparse
 row library.
 https://doi.org/10.1016/j.parco.2014.03.012

 Hutter, J; Iannuzzi, M; Schiffmann, F; VandeVondele, J. 
 WIREs Comput Mol Sci., 4 (1), 15-25 (2014). 
 CP2K: atomistic simulations of condensed matter systems.
 https://doi.org/10.1002/wcms.1159

 Marek, A; Blum, V; Johanni, R; Havu, V; Lang, B; Auckenthaler, T;
 Heinecke, A; Bungartz, H; Lederer, H. 
 Journal of Physics: Condensed Matter, 26 (21), (2014). 
 The ELPA library: scalable parallel eigenvalue solutions for
 electronic structure
 theory and computational science.
 https://doi.org/10.1088/0953-8984/26/21/213201

 Grimme, S; Ehrlich, S; Goerigk, L. 
 JOURNAL OF COMPUTATIONAL CHEMISTRY, 32, 1456 (2011). 
 Effect of the damping function in dispersion corrected density functional theory.
 https://doi.org/10.1002/jcc.21759

 Grimme, S; Antony, J; Ehrlich, S; Krieg, H. 
 JOURNAL OF CHEMICAL PHYSICS, 132 (15), 154104 (2010). 
 A consistent and accurate ab initio parametrization of density
 functional dispersion correction (DFT-D) for the 94 elements H-Pu.
 https://doi.org/10.1063/1.3382344

 VandeVondele, J; Hutter, J. 
 JOURNAL OF CHEMICAL PHYSICS, 127 (11), 114105 (2007). 
 Gaussian basis sets for accurate calculations on molecular systems in
 gas and condensed phases.
 https://doi.org/10.1063/1.2770708

 Krack, M. 
 THEORETICAL CHEMISTRY ACCOUNTS, 114 (1-3), 145-152 (2005). 
 Pseudopotentials for H to Kr optimized for gradient-corrected
 exchange-correlation functionals.
 https://doi.org/10.1007/s00214-005-0655-y

 VandeVondele, J; Krack, M; Mohamed, F; Parrinello, M; Chassaing, T;
 Hutter, J. COMPUTER PHYSICS COMMUNICATIONS, 167 (2), 103-128 (2005). 
 QUICKSTEP: Fast and accurate density functional calculations using a
 mixed Gaussian and plane waves approach.
 https://doi.org/10.1016/j.cpc.2004.12.014

 Frigo, M; Johnson, SG. 
 PROCEEDINGS OF THE IEEE, 93 (2), 216-231 (2005). 
 The design and implementation of FFTW3.
 https://doi.org/10.1109/JPROC.2004.840301

 Hartwigsen, C; Goedecker, S; Hutter, J. 
 PHYSICAL REVIEW B, 58 (7), 3641-3662 (1998). 
 Relativistic separable dual-space Gaussian pseudopotentials from H to Rn.
 https://doi.org/10.1103/PhysRevB.58.3641

 Lippert, G; Hutter, J; Parrinello, M. 
 MOLECULAR PHYSICS, 92 (3), 477-487 (1997). 
 A hybrid Gaussian and plane wave density functional scheme.
 https://doi.org/10.1080/002689797170220

 Perdew, JP; Burke, K; Ernzerhof, M. 
 PHYSICAL REVIEW LETTERS, 77 (18), 3865-3868 (1996). 
 Generalized gradient approximation made simple.
 https://doi.org/10.1103/PhysRevLett.77.3865

 Goedecker, S; Teter, M; Hutter, J. 
 PHYSICAL REVIEW B, 54 (3), 1703-1710 (1996). 
 Separable dual-space Gaussian pseudopotentials.
 https://doi.org/10.1103/PhysRevB.54.1703


 -------------------------------------------------------------------------------
 -                                                                             -
 -                                T I M I N G                                  -
 -                                                                             -
 -------------------------------------------------------------------------------
 SUBROUTINE                       CALLS  ASD         SELF TIME        TOTAL TIME
                                MAXIMUM       AVERAGE  MAXIMUM  AVERAGE  MAXIMUM
 CP2K                                 1  1.0    0.022    0.057 2082.239 2082.247
 qs_energies                          5  2.0    0.000    0.001 2080.447 2080.447
 scf_env_do_scf                       5  3.0    0.001    0.003 2067.176 2067.709
 scf_env_do_scf_inner_loop          238  4.0    0.010    0.038 2067.175 2067.706
 qs_scf_new_mos                     238  5.0    0.005    0.006  841.101  841.362
 eigensolver                        476  6.0    0.028    0.037  820.862  820.942
 qs_ks_update_qs_env                238  5.0    0.001    0.002  553.727  553.797
 rebuild_ks_matrix                  238  6.0    0.001    0.001  553.329  553.399
 qs_ks_build_kohn_sham_matrix       238  7.0    0.040    0.044  553.328  553.398
 cp_fm_diag_elpa                    386  7.0    0.003    0.003  497.870  497.968
 cp_fm_diag_elpa_base               386  8.0  494.628  495.541  497.730  497.731
 qs_rho_update_rho_low              243  5.0    0.002    0.002  421.550  421.650
 calculate_rho_elec                 486  6.0    1.734    1.886  421.548  421.648
 sum_up_and_integrate               238  8.0    5.204    5.258  376.508  376.578
 integrate_v_rspace                 476  9.0    0.013    0.015  371.302  371.367
 density_rs2pw                      486  7.0    0.039    0.043  276.422  359.865
 cp_fm_triangular_multiply         1428  7.0  319.861  320.640  319.861  320.640
 pw_transfer                       5519  9.0    0.427    0.523  312.648  314.155
 fft_wrap_pw1pw2                   5043  9.9    0.064    0.073  307.607  309.113
 fft_wrap_pw1pw2_150               2157 10.2   29.761   30.158  284.068  285.838
 grid_integrate_task_list           476 10.0  141.251  264.934  141.251  264.934
 gspace_mixing                      233  5.0    1.686    1.851  258.230  258.230
 grid_collocate_task_list           486  7.0  140.232  248.855  140.232  248.855
 rs_pw_transfer                    3853  9.5    0.061    0.068  157.340  240.407
 fft3d_ps                          5043 11.9  125.067  126.479  224.754  227.103
 mp_alltoall_d11v                  6704  9.3  126.953  215.812  126.953  215.812
 rs_gather_matrices                 476 10.0    0.344    0.403  124.262  213.090
 rs_pw_transfer_RS2PW_150           491  9.0    7.471    9.479  116.611  202.909
 mp_waitany                       15432 11.5  119.344  202.903  119.344  202.903
 broyden_mixing                     233  6.0  174.126  174.639  175.782  175.990
 qs_vxc_create                      238  8.0    0.010    0.011  125.846  126.307
 xc_vxc_pw_create                   238  9.0   13.038   14.237  125.836  126.298
 potential_pw2rs                    476 10.0    0.247    0.275  105.775  105.935
 xc_rho_set_and_dset_create         238 10.0   11.813   13.356   78.138   84.122
 x_to_yz                           2618 13.3   46.009   46.988   59.883   60.881
 xc_functional_eval                 238 11.0    0.004    0.004   40.577   44.763
 pbe_lsd_eval                       238 12.0   40.574   44.760   40.574   44.760
 -------------------------------------------------------------------------------

 The number of warnings for this run is : 7
 
 -------------------------------------------------------------------------------
  **** **** ******  **  PROGRAM ENDED AT                 2025-07-15 15:11:13.939
 ***** ** ***  *** **   PROGRAM RAN ON                                sebnode120
 **    ****   ******    PROGRAM RAN BY                                    luehrs
 ***** **    ** ** **   PROGRAM PROCESS ID                                650602
  **** **  *******  **  PROGRAM STOPPED IN /home/luehrs/PhD/Sodium_batteries/Sod
                                           ium-graphene-curvature/Sinus_surface/
                                           Sinus_3
