 DBCSR| CPU Multiplication driver                                           BLAS (U)
 DBCSR| Multrec recursion limit                                              512 (U)
 DBCSR| Multiplication stack size                                           1000 (D)
 DBCSR| Maximum elements for images                                    UNLIMITED (U)
 DBCSR| Multiplicative factor virtual images                                   1 (U)
 DBCSR| Use multiplication densification                                       T (D)
 DBCSR| Multiplication size stacks                                             3 (U)
 DBCSR| Use memory pool for CPU allocation                                     F (U)
 DBCSR| Number of 3D layers                                               SINGLE (U)
 DBCSR| Use MPI memory allocation                                              F (U)
 DBCSR| Use RMA algorithm                                                      F (U)
 DBCSR| Use Communication thread                                               T (U)
 DBCSR| Communication thread load                                             87 (D)
 DBCSR| MPI: My process id                                                     0
 DBCSR| MPI: Number of processes                                              16
 DBCSR| OMP: Current number of threads                                         1
 DBCSR| OMP: Max number of threads                                             1
 DBCSR| Split modifier for TAS multiplication algorithm                  1.0E+00 (U)


  **** **** ******  **  PROGRAM STARTED AT               2025-06-15 00:24:08.240
 ***** ** ***  *** **   PROGRAM STARTED ON                            sebnode120
 **    ****   ******    PROGRAM STARTED BY                                luehrs
 ***** **    ** ** **   PROGRAM PROCESS ID                                582787
  **** **  *******  **  PROGRAM STARTED IN /home/luehrs/PhD/Sodium_batteries/Sod
                                           ium-graphene-curvature/Sinus_surface/
                                           Sinus_3

 CP2K| version string:                                       CP2K version 2023.1
 CP2K| source code revision number:                                  git:b888bd8
 CP2K| cp2kflags: omp libint fftw3 libxc elpa parallel scalapack spglib         
 CP2K| is freely available from                            https://www.cp2k.org/
 CP2K| Program compiled at                          Tue Jan 10 19:52:03 UTC 2023
 CP2K| Program compiled on                                            x86-ubc-01
 CP2K| Program compiled for                                Linux-x86_64-gfortran
 CP2K| Data directory path                                       /usr/share/cp2k
 CP2K| Input file name                                         input.zig-zag.inp

 GLOBAL| Force Environment number                                              1
 GLOBAL| Basis set file name                                      ./BASIS_MOLOPT
 GLOBAL| Potential file name                                    ./GTH_POTENTIALS
 GLOBAL| MM Potential file name                                     MM_POTENTIAL
 GLOBAL| Coordinate file name                                  sinus_relaxed.xyz
 GLOBAL| Method name                                                        CP2K
 GLOBAL| Project name                                 graphene_sinus_Sodium_BSSE
 GLOBAL| Run type                                                           BSSE
 GLOBAL| FFT library                                                       FFTW3
 GLOBAL| Diagonalization library                                            ELPA
 GLOBAL| DGEMM library                                                      BLAS
 GLOBAL| Minimum number of eigenvectors for ELPA usage                        16
 GLOBAL| Orthonormality check for eigenvectors                          DISABLED
 GLOBAL| Matrix multiplication library                                 ScaLAPACK
 GLOBAL| All-to-all communication in single precision                          F
 GLOBAL| FFTs using library dependent lengths                                  F
 GLOBAL| Grid backend                                                       AUTO
 GLOBAL| Global print level                                                  LOW
 GLOBAL| MPI I/O enabled                                                       T
 GLOBAL| Total number of message passing processes                            16
 GLOBAL| Number of threads for this process                                    1
 GLOBAL| This output is from process                                           0
 GLOBAL| Stack size for threads created by OpenMP (OMP_STACKSIZE)        default
 GLOBAL| CPU model name                 Intel(R) Xeon(R) Gold 6144 CPU @ 3.50GHz

 MEMORY| system memory details [Kb]
 MEMORY|                        rank 0           min           max       average
 MEMORY| MemTotal             65585096      65585096      65585096      65585096
 MEMORY| MemFree              63096128      63096128      63096128      63096128
 MEMORY| Buffers                153868        153868        153868        153868
 MEMORY| Cached                 380156        380156        380156        380156
 MEMORY| Slab                   223924        223924        223924        223924
 MEMORY| SReclaimable            84824         84824         84824         84824
 MEMORY| MemLikelyFree        63714976      63714976      63714976      63714976


 GENERATE|  Preliminary Number of Bonds generated:                             0
 GENERATE|  Achieved consistency in connectivity generation.

 *******************************************************************************
 *******************************************************************************
 **                                                                           **
 **     #####                         ##              ##                      **
 **    ##   ##            ##          ##              ##                      **
 **   ##     ##                       ##            ######                    **
 **   ##     ##  ##   ##  ##   #####  ##  ##   ####   ##    #####    #####    **
 **   ##     ##  ##   ##  ##  ##      ## ##   ##      ##   ##   ##  ##   ##   **
 **   ##  ## ##  ##   ##  ##  ##      ####     ###    ##   ######   ######    **
 **    ##  ###   ##   ##  ##  ##      ## ##      ##   ##   ##       ##        **
 **     #######   #####   ##   #####  ##  ##  ####    ##    #####   ##        **
 **           ##                                                    ##        **
 **                                                                           **
 **                                                ... make the atoms dance   **
 **                                                                           **
 **            Copyright (C) by CP2K developers group (2000-2022)             **
 **                      J. Chem. Phys. 152, 194103 (2020)                    **
 **                                                                           **
 *******************************************************************************


 TOTAL NUMBERS AND MAXIMUM NUMBERS

  Total number of            - Atomic kinds:                                   2
                             - Atoms:                                        193
                             - Shell sets:                                   193
                             - Shells:                                       965
                             - Primitive Cartesian functions:                967
                             - Cartesian basis functions:                   2697
                             - Spherical basis functions:                   2505

  Maximum angular momentum of- Orbital basis functions:                        2
                             - Local part of the GTH pseudopotential:          2
                             - Non-local part of the GTH pseudopotential:      1


 SCF PARAMETERS         Density guess:                                    ATOMIC
                        --------------------------------------------------------
                        max_scf:                                             300
                        max_scf_history:                                       0
                        max_diis:                                              4
                        --------------------------------------------------------
                        eps_scf:                                        3.00E-07
                        eps_scf_history:                                0.00E+00
                        eps_diis:                                       1.00E-01
                        eps_eigval:                                     1.00E-05
                        --------------------------------------------------------
                        level_shift [a.u.]:                             0.000000
                        added MOs                                       100    0
                        --------------------------------------------------------
                        Mixing method:                            BROYDEN_MIXING
                                                charge density mixing in g-space
                        --------------------------------------------------------
                        Smear method:                                FERMI_DIRAC
                        Electronic temperature [K]:                        300.0
                        Electronic temperature [a.u.]:                  9.50E-04
                        Accuracy threshold:                             1.00E-10
                        --------------------------------------------------------
                        Outer loop SCF in use 
                        No variables optimised in outer loop
                        eps_scf                                         1.00E-06
                        max_scf                                              300
                        DIIS optimization
                        DIIS buffer length                                     3
                        step_size                                       5.00E-01

 -------------------------------------------------------------------------------
 -                                                                             -
 -  BSSE CALCULATION         FRAGMENT CONF: 10        FRAGMENT SUBCONF: 10     -
 -                           CHARGE =     0           MULTIPLICITY =     0     -
 -                                                                             -
 -                 ATOM INDEX                              ATOM NAME           -
 -                 ----------                              ---------           -
 -                      1                                   C                  -
 -                      2                                   C                  -
 -                      3                                   C                  -
 -                      4                                   C                  -
 -                      5                                   C                  -
 -                      6                                   C                  -
 -                      7                                   C                  -
 -                      8                                   C                  -
 -                      9                                   C                  -
 -                     10                                   C                  -
 -                     11                                   C                  -
 -                     12                                   C                  -
 -                     13                                   C                  -
 -                     14                                   C                  -
 -                     15                                   C                  -
 -                     16                                   C                  -
 -                     17                                   C                  -
 -                     18                                   C                  -
 -                     19                                   C                  -
 -                     20                                   C                  -
 -                     21                                   C                  -
 -                     22                                   C                  -
 -                     23                                   C                  -
 -                     24                                   C                  -
 -                     25                                   C                  -
 -                     26                                   C                  -
 -                     27                                   C                  -
 -                     28                                   C                  -
 -                     29                                   C                  -
 -                     30                                   C                  -
 -                     31                                   C                  -
 -                     32                                   C                  -
 -                     33                                   C                  -
 -                     34                                   C                  -
 -                     35                                   C                  -
 -                     36                                   C                  -
 -                     37                                   C                  -
 -                     38                                   C                  -
 -                     39                                   C                  -
 -                     40                                   C                  -
 -                     41                                   C                  -
 -                     42                                   C                  -
 -                     43                                   C                  -
 -                     44                                   C                  -
 -                     45                                   C                  -
 -                     46                                   C                  -
 -                     47                                   C                  -
 -                     48                                   C                  -
 -                     49                                   C                  -
 -                     50                                   C                  -
 -                     51                                   C                  -
 -                     52                                   C                  -
 -                     53                                   C                  -
 -                     54                                   C                  -
 -                     55                                   C                  -
 -                     56                                   C                  -
 -                     57                                   C                  -
 -                     58                                   C                  -
 -                     59                                   C                  -
 -                     60                                   C                  -
 -                     61                                   C                  -
 -                     62                                   C                  -
 -                     63                                   C                  -
 -                     64                                   C                  -
 -                     65                                   C                  -
 -                     66                                   C                  -
 -                     67                                   C                  -
 -                     68                                   C                  -
 -                     69                                   C                  -
 -                     70                                   C                  -
 -                     71                                   C                  -
 -                     72                                   C                  -
 -                     73                                   C                  -
 -                     74                                   C                  -
 -                     75                                   C                  -
 -                     76                                   C                  -
 -                     77                                   C                  -
 -                     78                                   C                  -
 -                     79                                   C                  -
 -                     80                                   C                  -
 -                     81                                   C                  -
 -                     82                                   C                  -
 -                     83                                   C                  -
 -                     84                                   C                  -
 -                     85                                   C                  -
 -                     86                                   C                  -
 -                     87                                   C                  -
 -                     88                                   C                  -
 -                     89                                   C                  -
 -                     90                                   C                  -
 -                     91                                   C                  -
 -                     92                                   C                  -
 -                     93                                   C                  -
 -                     94                                   C                  -
 -                     95                                   C                  -
 -                     96                                   C                  -
 -                     97                                   C                  -
 -                     98                                   C                  -
 -                     99                                   C                  -
 -                    100                                   C                  -
 -                    101                                   C                  -
 -                    102                                   C                  -
 -                    103                                   C                  -
 -                    104                                   C                  -
 -                    105                                   C                  -
 -                    106                                   C                  -
 -                    107                                   C                  -
 -                    108                                   C                  -
 -                    109                                   C                  -
 -                    110                                   C                  -
 -                    111                                   C                  -
 -                    112                                   C                  -
 -                    113                                   C                  -
 -                    114                                   C                  -
 -                    115                                   C                  -
 -                    116                                   C                  -
 -                    117                                   C                  -
 -                    118                                   C                  -
 -                    119                                   C                  -
 -                    120                                   C                  -
 -                    121                                   C                  -
 -                    122                                   C                  -
 -                    123                                   C                  -
 -                    124                                   C                  -
 -                    125                                   C                  -
 -                    126                                   C                  -
 -                    127                                   C                  -
 -                    128                                   C                  -
 -                    129                                   C                  -
 -                    130                                   C                  -
 -                    131                                   C                  -
 -                    132                                   C                  -
 -                    133                                   C                  -
 -                    134                                   C                  -
 -                    135                                   C                  -
 -                    136                                   C                  -
 -                    137                                   C                  -
 -                    138                                   C                  -
 -                    139                                   C                  -
 -                    140                                   C                  -
 -                    141                                   C                  -
 -                    142                                   C                  -
 -                    143                                   C                  -
 -                    144                                   C                  -
 -                    145                                   C                  -
 -                    146                                   C                  -
 -                    147                                   C                  -
 -                    148                                   C                  -
 -                    149                                   C                  -
 -                    150                                   C                  -
 -                    151                                   C                  -
 -                    152                                   C                  -
 -                    153                                   C                  -
 -                    154                                   C                  -
 -                    155                                   C                  -
 -                    156                                   C                  -
 -                    157                                   C                  -
 -                    158                                   C                  -
 -                    159                                   C                  -
 -                    160                                   C                  -
 -                    161                                   C                  -
 -                    162                                   C                  -
 -                    163                                   C                  -
 -                    164                                   C                  -
 -                    165                                   C                  -
 -                    166                                   C                  -
 -                    167                                   C                  -
 -                    168                                   C                  -
 -                    169                                   C                  -
 -                    170                                   C                  -
 -                    171                                   C                  -
 -                    172                                   C                  -
 -                    173                                   C                  -
 -                    174                                   C                  -
 -                    175                                   C                  -
 -                    176                                   C                  -
 -                    177                                   C                  -
 -                    178                                   C                  -
 -                    179                                   C                  -
 -                    180                                   C                  -
 -                    181                                   C                  -
 -                    182                                   C                  -
 -                    183                                   C                  -
 -                    184                                   C                  -
 -                    185                                   C                  -
 -                    186                                   C                  -
 -                    187                                   C                  -
 -                    188                                   C                  -
 -                    189                                   C                  -
 -                    190                                   C                  -
 -                    191                                   C                  -
 -                    192                                   C                  -
 -------------------------------------------------------------------------------

 *******************************************************************************
 *******************************************************************************
 **                                                                           **
 **     #####                         ##              ##                      **
 **    ##   ##            ##          ##              ##                      **
 **   ##     ##                       ##            ######                    **
 **   ##     ##  ##   ##  ##   #####  ##  ##   ####   ##    #####    #####    **
 **   ##     ##  ##   ##  ##  ##      ## ##   ##      ##   ##   ##  ##   ##   **
 **   ##  ## ##  ##   ##  ##  ##      ####     ###    ##   ######   ######    **
 **    ##  ###   ##   ##  ##  ##      ## ##      ##   ##   ##       ##        **
 **     #######   #####   ##   #####  ##  ##  ####    ##    #####   ##        **
 **           ##                                                    ##        **
 **                                                                           **
 **                                                ... make the atoms dance   **
 **                                                                           **
 **            Copyright (C) by CP2K developers group (2000-2022)             **
 **                      J. Chem. Phys. 152, 194103 (2020)                    **
 **                                                                           **
 *******************************************************************************


 TOTAL NUMBERS AND MAXIMUM NUMBERS

  Total number of            - Atomic kinds:                                   1
                             - Atoms:                                        192
                             - Shell sets:                                   192
                             - Shells:                                       960
                             - Primitive Cartesian functions:                960
                             - Cartesian basis functions:                   2688
                             - Spherical basis functions:                   2496

  Maximum angular momentum of- Orbital basis functions:                        2
                             - Local part of the GTH pseudopotential:          2
                             - Non-local part of the GTH pseudopotential:      0


 SCF PARAMETERS         Density guess:                                    ATOMIC
                        --------------------------------------------------------
                        max_scf:                                             300
                        max_scf_history:                                       0
                        max_diis:                                              4
                        --------------------------------------------------------
                        eps_scf:                                        3.00E-07
                        eps_scf_history:                                0.00E+00
                        eps_diis:                                       1.00E-01
                        eps_eigval:                                     1.00E-05
                        --------------------------------------------------------
                        level_shift [a.u.]:                             0.000000
                        added MOs                                       100    0
                        --------------------------------------------------------
                        Mixing method:                            BROYDEN_MIXING
                                                charge density mixing in g-space
                        --------------------------------------------------------
                        Smear method:                                FERMI_DIRAC
                        Electronic temperature [K]:                        300.0
                        Electronic temperature [a.u.]:                  9.50E-04
                        Accuracy threshold:                             1.00E-10
                        --------------------------------------------------------
                        Outer loop SCF in use 
                        No variables optimised in outer loop
                        eps_scf                                         1.00E-06
                        max_scf                                              300
                        DIIS optimization
                        DIIS buffer length                                     3
                        step_size                                       5.00E-01

 Number of electrons:                                                        768
 Number of occupied orbitals:                                                384
 Number of molecular orbitals:                                               484

 Number of orbital functions:                                               2496
 Number of independent orbital functions:                                   2496

 Extrapolation method: initial_guess


 SCF WAVEFUNCTION OPTIMIZATION

  Step     Update method      Time    Convergence         Total energy    Change
  ------------------------------------------------------------------------------
     1 NoMix/Diag. 0.10E+00    3.6     0.92573062     -1085.8946863414 -1.09E+03
     2 Broy./Diag. 0.10E+00    4.8     0.00232744     -1044.3873617358  4.15E+01
     3 Broy./Diag. 0.10E+00    4.8     0.02586236     -1076.4963158327 -3.21E+01
     4 Broy./Diag. 0.10E+00    4.8     0.00034356     -1090.1693107511 -1.37E+01
     5 Broy./Diag. 0.10E+00    4.9     0.00234305     -1090.7548836437 -5.86E-01
     6 Broy./Diag. 0.10E+00    4.9     0.00009823     -1091.9287574394 -1.17E+00
     7 Broy./Diag. 0.10E+00    4.9     0.00083268     -1092.4504065293 -5.22E-01
     8 Broy./Diag. 0.10E+00    5.0     0.00004672     -1092.8157962550 -3.65E-01
     9 Broy./Diag. 0.10E+00    5.1     0.00066534     -1092.9899741778 -1.74E-01
    10 Broy./Diag. 0.10E+00    5.1     0.00005031     -1093.2103205340 -2.20E-01
    11 Broy./Diag. 0.10E+00    5.1     0.00067107     -1093.1678251792  4.25E-02
    12 Broy./Diag. 0.10E+00    5.1     0.00002805     -1093.2470274232 -7.92E-02
    13 Broy./Diag. 0.10E+00    5.1     0.00049191     -1093.2828137083 -3.58E-02
    14 Broy./Diag. 0.10E+00    5.1     0.00005141     -1093.3222307304 -3.94E-02
    15 Broy./Diag. 0.10E+00    5.1     0.00034925     -1093.3587382375 -3.65E-02
    16 Broy./Diag. 0.10E+00    5.1     0.00004865     -1093.3767761811 -1.80E-02
    17 Broy./Diag. 0.10E+00    5.1     0.00006889     -1093.3561408660  2.06E-02
    18 Broy./Diag. 0.10E+00    5.1     0.00001327     -1093.3461177362  1.00E-02
    19 Broy./Diag. 0.10E+00    5.1     0.00002569     -1093.3437945835  2.32E-03
    20 Broy./Diag. 0.10E+00    5.1     0.00000744     -1093.3468560324 -3.06E-03
    21 Broy./Diag. 0.10E+00    5.1     0.00001332     -1093.3477314900 -8.75E-04
    22 Broy./Diag. 0.10E+00    5.1     0.00001079     -1093.3513509522 -3.62E-03
    23 Broy./Diag. 0.10E+00    5.1     0.00000579     -1093.3550068728 -3.66E-03
    24 Broy./Diag. 0.10E+00    5.1     0.00003890     -1093.3543415798  6.65E-04
    25 Broy./Diag. 0.10E+00    5.1     0.00000522     -1093.3552321132 -8.91E-04
    26 Broy./Diag. 0.10E+00    5.1     0.00004060     -1093.3563257623 -1.09E-03
    27 Broy./Diag. 0.10E+00    5.1     0.00000662     -1093.3600805240 -3.75E-03
    28 Broy./Diag. 0.10E+00    5.1     0.00001264     -1093.3634998790 -3.42E-03
    29 Broy./Diag. 0.10E+00    5.1     0.00000554     -1093.3651544608 -1.65E-03
    30 Broy./Diag. 0.10E+00    5.1     0.00000426     -1093.3652022039 -4.77E-05
    31 Broy./Diag. 0.10E+00    5.1     0.00001110     -1093.3651065213  9.57E-05
    32 Broy./Diag. 0.10E+00    5.1     0.00000188     -1093.3666894911 -1.58E-03
    33 Broy./Diag. 0.10E+00    5.1     0.00000503     -1093.3660924789  5.97E-04
    34 Broy./Diag. 0.10E+00    5.1     0.00000315     -1093.3668078832 -7.15E-04
    35 Broy./Diag. 0.10E+00    5.1     0.00000430     -1093.3684537775 -1.65E-03
    36 Broy./Diag. 0.10E+00    5.1     0.00000844     -1093.3690927578 -6.39E-04
    37 Broy./Diag. 0.10E+00    5.1     0.00000615     -1093.3688003175  2.92E-04
    38 Broy./Diag. 0.10E+00    5.1     0.00000464     -1093.3680819364  7.18E-04
    39 Broy./Diag. 0.10E+00    5.1     0.00000256     -1093.3680726929  9.24E-06
    40 Broy./Diag. 0.10E+00    5.1     0.00000640     -1093.3690249244 -9.52E-04
    41 Broy./Diag. 0.10E+00    5.1     0.00000135     -1093.3700243348 -9.99E-04
    42 Broy./Diag. 0.10E+00    5.1     0.00000152     -1093.3702634996 -2.39E-04
    43 Broy./Diag. 0.10E+00    5.1     0.00000169     -1093.3704124890 -1.49E-04
    44 Broy./Diag. 0.10E+00    5.1     0.00000130     -1093.3704229409 -1.05E-05
    45 Broy./Diag. 0.10E+00    5.1     0.00000202     -1093.3701542014  2.69E-04
    46 Broy./Diag. 0.10E+00    5.1     0.00000141     -1093.3701759490 -2.17E-05
    47 Broy./Diag. 0.10E+00    5.1     0.00000260     -1093.3703443370 -1.68E-04
    48 Broy./Diag. 0.10E+00    5.1     0.00000123     -1093.3705821130 -2.38E-04
    49 Broy./Diag. 0.10E+00    5.1     0.00000137     -1093.3706785306 -9.64E-05
    50 Broy./Diag. 0.10E+00    5.1     0.00000086     -1093.3706144533  6.41E-05
    51 Broy./Diag. 0.10E+00    5.1     0.00000025     -1093.3705535684  6.09E-05

  *** SCF run converged in    51 steps ***


  Electronic density on regular grids:       -768.0000000000        0.0000000000
  Core density on regular grids:              767.9999999993       -0.0000000007
  Total charge density on r-space grids:       -0.0000000007
  Total charge density g-space grids:          -0.0000000007

  Overlap energy of the core charge distribution:               0.00003001097685
  Self energy of the core charge distribution:              -2560.32152193892080
  Core Hamiltonian energy:                                    801.03299213672608
  Hartree energy:                                            1001.35335970787685
  Exchange-correlation energy:                               -335.18893523900744
  Dispersion energy:                                           -0.24647807669622
  Electronic entropic energy:                                  -0.00000016931932
  Fermi energy:                                                -0.10926141994120

  Total energy:                                             -1093.37055356836413

  outer SCF iter =    1 RMS gradient =   0.25E-06 energy =      -1093.3705535684
  outer SCF loop converged in   1 iterations or   51 steps


 *** WARNING in qs_loc_utils.F:1500 :: User requested the calculation of ***
 *** the localized wavefunction but the section LOCALIZE was not         ***
 *** specified. Localization will not be performed!                      ***


 -------------------------------------------------------------------------------
 -                                                                             -
 -  BSSE CALCULATION         FRAGMENT CONF: 01        FRAGMENT SUBCONF: 01     -
 -                           CHARGE =     0           MULTIPLICITY =     0     -
 -                                                                             -
 -                 ATOM INDEX                              ATOM NAME           -
 -                 ----------                              ---------           -
 -                    193                                   Na                 -
 -------------------------------------------------------------------------------

 *******************************************************************************
 *******************************************************************************
 **                                                                           **
 **     #####                         ##              ##                      **
 **    ##   ##            ##          ##              ##                      **
 **   ##     ##                       ##            ######                    **
 **   ##     ##  ##   ##  ##   #####  ##  ##   ####   ##    #####    #####    **
 **   ##     ##  ##   ##  ##  ##      ## ##   ##      ##   ##   ##  ##   ##   **
 **   ##  ## ##  ##   ##  ##  ##      ####     ###    ##   ######   ######    **
 **    ##  ###   ##   ##  ##  ##      ## ##      ##   ##   ##       ##        **
 **     #######   #####   ##   #####  ##  ##  ####    ##    #####   ##        **
 **           ##                                                    ##        **
 **                                                                           **
 **                                                ... make the atoms dance   **
 **                                                                           **
 **            Copyright (C) by CP2K developers group (2000-2022)             **
 **                      J. Chem. Phys. 152, 194103 (2020)                    **
 **                                                                           **
 *******************************************************************************

 *** WARNING in qs_environment.F:1486 :: More added MOs requested than     ***
 *** available. The full set of unoccupied MOs will be used. Use           ***
 *** 'ADDED_MOS -1' to always use all available MOs and to get rid of this ***
 *** warning.                                                              ***



 TOTAL NUMBERS AND MAXIMUM NUMBERS

  Total number of            - Atomic kinds:                                   1
                             - Atoms:                                          1
                             - Shell sets:                                     1
                             - Shells:                                         5
                             - Primitive Cartesian functions:                  7
                             - Cartesian basis functions:                      9
                             - Spherical basis functions:                      9

  Maximum angular momentum of- Orbital basis functions:                        1
                             - Local part of the GTH pseudopotential:          2
                             - Non-local part of the GTH pseudopotential:      1


 SCF PARAMETERS         Density guess:                                    ATOMIC
                        --------------------------------------------------------
                        max_scf:                                             300
                        max_scf_history:                                       0
                        max_diis:                                              4
                        --------------------------------------------------------
                        eps_scf:                                        3.00E-07
                        eps_scf_history:                                0.00E+00
                        eps_diis:                                       1.00E-01
                        eps_eigval:                                     1.00E-05
                        --------------------------------------------------------
                        level_shift [a.u.]:                             0.000000
                        added MOs                                         4    0
                        --------------------------------------------------------
                        Mixing method:                            BROYDEN_MIXING
                                                charge density mixing in g-space
                        --------------------------------------------------------
                        Smear method:                                FERMI_DIRAC
                        Electronic temperature [K]:                        300.0
                        Electronic temperature [a.u.]:                  9.50E-04
                        Accuracy threshold:                             1.00E-10
                        --------------------------------------------------------
                        Outer loop SCF in use 
                        No variables optimised in outer loop
                        eps_scf                                         1.00E-06
                        max_scf                                              300
                        DIIS optimization
                        DIIS buffer length                                     3
                        step_size                                       5.00E-01

 Number of electrons:                                                          9
 Number of occupied orbitals:                                                  5
 Number of molecular orbitals:                                                 9

 Number of orbital functions:                                                  9
 Number of independent orbital functions:                                      9

 Extrapolation method: initial_guess


 SCF WAVEFUNCTION OPTIMIZATION

  Step     Update method      Time    Convergence         Total energy    Change
  ------------------------------------------------------------------------------
     1 NoMix/Diag. 0.10E+00    0.6     0.02074976       -47.1653314258 -4.72E+01
     2 Broy./Diag. 0.10E+00    1.2     0.00009782       -47.1219029312  4.34E-02
     3 Broy./Diag. 0.10E+00    1.3     0.00101031       -47.1632912416 -4.14E-02
     4 Broy./Diag. 0.10E+00    1.3     0.00002407       -47.1710495417 -7.76E-03
     5 Broy./Diag. 0.10E+00    1.4     0.00026050       -47.1710254877  2.41E-05
     6 Broy./Diag. 0.10E+00    1.4     0.00000867       -47.1711477676 -1.22E-04
     7 Broy./Diag. 0.10E+00    1.4     0.00014794       -47.1693795945  1.77E-03
     8 Broy./Diag. 0.10E+00    1.5     0.00001917       -47.1683887477  9.91E-04
     9 Broy./Diag. 0.10E+00    1.5     0.00019700       -47.1677606539  6.28E-04
    10 Broy./Diag. 0.10E+00    1.6     0.00000921       -47.1673877771  3.73E-04
    11 Broy./Diag. 0.10E+00    1.6     0.00009139       -47.1672144105  1.73E-04
    12 Broy./Diag. 0.10E+00    1.6     0.00000151       -47.1671782496  3.62E-05
    13 Broy./Diag. 0.10E+00    1.6     0.00000566       -47.1673001797 -1.22E-04
    14 Broy./Diag. 0.10E+00    1.6     0.00000081       -47.1673224429 -2.23E-05
    15 Broy./Diag. 0.10E+00    1.6     0.00001110       -47.1671478720  1.75E-04
    16 Broy./Diag. 0.10E+00    1.6     0.00000227       -47.1671271476  2.07E-05
    17 Broy./Diag. 0.10E+00    1.6     0.00000235       -47.1671784066 -5.13E-05
    18 Broy./Diag. 0.10E+00    1.6     0.00000205       -47.1672225058 -4.41E-05
    19 Broy./Diag. 0.10E+00    1.6     0.00000212       -47.1672405371 -1.80E-05
    20 Broy./Diag. 0.10E+00    1.6     0.00000189       -47.1672339823  6.55E-06
    21 Broy./Diag. 0.10E+00    1.6     0.00000222       -47.1672145995  1.94E-05
    22 Broy./Diag. 0.10E+00    1.6     0.00000259       -47.1671942957  2.03E-05
    23 Broy./Diag. 0.10E+00    1.6     0.00000359       -47.1671736305  2.07E-05
    24 Broy./Diag. 0.10E+00    1.6     0.00000074       -47.1671720089  1.62E-06
    25 Broy./Diag. 0.10E+00    1.6     0.00000033       -47.1671827423 -1.07E-05
    26 Broy./Diag. 0.10E+00    1.6     0.00000026       -47.1671766554  6.09E-06

  *** SCF run converged in    26 steps ***


  Electronic density on regular grids:         -9.0003980882       -0.0003980882
  Core density on regular grids:                9.0000000000       -0.0000000000
  Total charge density on r-space grids:       -0.0003980882
  Total charge density g-space grids:          -0.0003980882

  Overlap energy of the core charge distribution:               0.00000000000000
  Self energy of the core charge distribution:                -96.60649019442629
  Core Hamiltonian energy:                                     29.76238051148529
  Hartree energy:                                              26.72264374849582
  Exchange-correlation energy:                                 -7.04438508284494
  Dispersion energy:                                           -0.00000859667287
  Electronic entropic energy:                                  -0.00131704147593
  Fermi energy:                                                -0.09138327492079

  Total energy:                                               -47.16717665543890

  outer SCF iter =    1 RMS gradient =   0.26E-06 energy =        -47.1671766554
  outer SCF loop converged in   1 iterations or   26 steps


 *** WARNING in qs_loc_utils.F:1500 :: User requested the calculation of ***
 *** the localized wavefunction but the section LOCALIZE was not         ***
 *** specified. Localization will not be performed!                      ***


 -------------------------------------------------------------------------------
 -                                                                             -
 -  BSSE CALCULATION         FRAGMENT CONF: 11        FRAGMENT SUBCONF: 10     -
 -                           CHARGE =     0           MULTIPLICITY =     0     -
 -                                                                             -
 -                 ATOM INDEX                              ATOM NAME           -
 -                 ----------                              ---------           -
 -                      1                                   C                  -
 -                      2                                   C                  -
 -                      3                                   C                  -
 -                      4                                   C                  -
 -                      5                                   C                  -
 -                      6                                   C                  -
 -                      7                                   C                  -
 -                      8                                   C                  -
 -                      9                                   C                  -
 -                     10                                   C                  -
 -                     11                                   C                  -
 -                     12                                   C                  -
 -                     13                                   C                  -
 -                     14                                   C                  -
 -                     15                                   C                  -
 -                     16                                   C                  -
 -                     17                                   C                  -
 -                     18                                   C                  -
 -                     19                                   C                  -
 -                     20                                   C                  -
 -                     21                                   C                  -
 -                     22                                   C                  -
 -                     23                                   C                  -
 -                     24                                   C                  -
 -                     25                                   C                  -
 -                     26                                   C                  -
 -                     27                                   C                  -
 -                     28                                   C                  -
 -                     29                                   C                  -
 -                     30                                   C                  -
 -                     31                                   C                  -
 -                     32                                   C                  -
 -                     33                                   C                  -
 -                     34                                   C                  -
 -                     35                                   C                  -
 -                     36                                   C                  -
 -                     37                                   C                  -
 -                     38                                   C                  -
 -                     39                                   C                  -
 -                     40                                   C                  -
 -                     41                                   C                  -
 -                     42                                   C                  -
 -                     43                                   C                  -
 -                     44                                   C                  -
 -                     45                                   C                  -
 -                     46                                   C                  -
 -                     47                                   C                  -
 -                     48                                   C                  -
 -                     49                                   C                  -
 -                     50                                   C                  -
 -                     51                                   C                  -
 -                     52                                   C                  -
 -                     53                                   C                  -
 -                     54                                   C                  -
 -                     55                                   C                  -
 -                     56                                   C                  -
 -                     57                                   C                  -
 -                     58                                   C                  -
 -                     59                                   C                  -
 -                     60                                   C                  -
 -                     61                                   C                  -
 -                     62                                   C                  -
 -                     63                                   C                  -
 -                     64                                   C                  -
 -                     65                                   C                  -
 -                     66                                   C                  -
 -                     67                                   C                  -
 -                     68                                   C                  -
 -                     69                                   C                  -
 -                     70                                   C                  -
 -                     71                                   C                  -
 -                     72                                   C                  -
 -                     73                                   C                  -
 -                     74                                   C                  -
 -                     75                                   C                  -
 -                     76                                   C                  -
 -                     77                                   C                  -
 -                     78                                   C                  -
 -                     79                                   C                  -
 -                     80                                   C                  -
 -                     81                                   C                  -
 -                     82                                   C                  -
 -                     83                                   C                  -
 -                     84                                   C                  -
 -                     85                                   C                  -
 -                     86                                   C                  -
 -                     87                                   C                  -
 -                     88                                   C                  -
 -                     89                                   C                  -
 -                     90                                   C                  -
 -                     91                                   C                  -
 -                     92                                   C                  -
 -                     93                                   C                  -
 -                     94                                   C                  -
 -                     95                                   C                  -
 -                     96                                   C                  -
 -                     97                                   C                  -
 -                     98                                   C                  -
 -                     99                                   C                  -
 -                    100                                   C                  -
 -                    101                                   C                  -
 -                    102                                   C                  -
 -                    103                                   C                  -
 -                    104                                   C                  -
 -                    105                                   C                  -
 -                    106                                   C                  -
 -                    107                                   C                  -
 -                    108                                   C                  -
 -                    109                                   C                  -
 -                    110                                   C                  -
 -                    111                                   C                  -
 -                    112                                   C                  -
 -                    113                                   C                  -
 -                    114                                   C                  -
 -                    115                                   C                  -
 -                    116                                   C                  -
 -                    117                                   C                  -
 -                    118                                   C                  -
 -                    119                                   C                  -
 -                    120                                   C                  -
 -                    121                                   C                  -
 -                    122                                   C                  -
 -                    123                                   C                  -
 -                    124                                   C                  -
 -                    125                                   C                  -
 -                    126                                   C                  -
 -                    127                                   C                  -
 -                    128                                   C                  -
 -                    129                                   C                  -
 -                    130                                   C                  -
 -                    131                                   C                  -
 -                    132                                   C                  -
 -                    133                                   C                  -
 -                    134                                   C                  -
 -                    135                                   C                  -
 -                    136                                   C                  -
 -                    137                                   C                  -
 -                    138                                   C                  -
 -                    139                                   C                  -
 -                    140                                   C                  -
 -                    141                                   C                  -
 -                    142                                   C                  -
 -                    143                                   C                  -
 -                    144                                   C                  -
 -                    145                                   C                  -
 -                    146                                   C                  -
 -                    147                                   C                  -
 -                    148                                   C                  -
 -                    149                                   C                  -
 -                    150                                   C                  -
 -                    151                                   C                  -
 -                    152                                   C                  -
 -                    153                                   C                  -
 -                    154                                   C                  -
 -                    155                                   C                  -
 -                    156                                   C                  -
 -                    157                                   C                  -
 -                    158                                   C                  -
 -                    159                                   C                  -
 -                    160                                   C                  -
 -                    161                                   C                  -
 -                    162                                   C                  -
 -                    163                                   C                  -
 -                    164                                   C                  -
 -                    165                                   C                  -
 -                    166                                   C                  -
 -                    167                                   C                  -
 -                    168                                   C                  -
 -                    169                                   C                  -
 -                    170                                   C                  -
 -                    171                                   C                  -
 -                    172                                   C                  -
 -                    173                                   C                  -
 -                    174                                   C                  -
 -                    175                                   C                  -
 -                    176                                   C                  -
 -                    177                                   C                  -
 -                    178                                   C                  -
 -                    179                                   C                  -
 -                    180                                   C                  -
 -                    181                                   C                  -
 -                    182                                   C                  -
 -                    183                                   C                  -
 -                    184                                   C                  -
 -                    185                                   C                  -
 -                    186                                   C                  -
 -                    187                                   C                  -
 -                    188                                   C                  -
 -                    189                                   C                  -
 -                    190                                   C                  -
 -                    191                                   C                  -
 -                    192                                   C                  -
 -                    193                                   Na_ghost           -
 -------------------------------------------------------------------------------

 *******************************************************************************
 *******************************************************************************
 **                                                                           **
 **     #####                         ##              ##                      **
 **    ##   ##            ##          ##              ##                      **
 **   ##     ##                       ##            ######                    **
 **   ##     ##  ##   ##  ##   #####  ##  ##   ####   ##    #####    #####    **
 **   ##     ##  ##   ##  ##  ##      ## ##   ##      ##   ##   ##  ##   ##   **
 **   ##  ## ##  ##   ##  ##  ##      ####     ###    ##   ######   ######    **
 **    ##  ###   ##   ##  ##  ##      ## ##      ##   ##   ##       ##        **
 **     #######   #####   ##   #####  ##  ##  ####    ##    #####   ##        **
 **           ##                                                    ##        **
 **                                                                           **
 **                                                ... make the atoms dance   **
 **                                                                           **
 **            Copyright (C) by CP2K developers group (2000-2022)             **
 **                      J. Chem. Phys. 152, 194103 (2020)                    **
 **                                                                           **
 *******************************************************************************


 TOTAL NUMBERS AND MAXIMUM NUMBERS

  Total number of            - Atomic kinds:                                   2
                             - Atoms:                                        193
                             - Shell sets:                                   193
                             - Shells:                                       965
                             - Primitive Cartesian functions:                967
                             - Cartesian basis functions:                   2697
                             - Spherical basis functions:                   2505

  Maximum angular momentum of- Orbital basis functions:                        2
                             - Local part of the GTH pseudopotential:          2
                             - Non-local part of the GTH pseudopotential:      0


 SCF PARAMETERS         Density guess:                                    ATOMIC
                        --------------------------------------------------------
                        max_scf:                                             300
                        max_scf_history:                                       0
                        max_diis:                                              4
                        --------------------------------------------------------
                        eps_scf:                                        3.00E-07
                        eps_scf_history:                                0.00E+00
                        eps_diis:                                       1.00E-01
                        eps_eigval:                                     1.00E-05
                        --------------------------------------------------------
                        level_shift [a.u.]:                             0.000000
                        added MOs                                       100    0
                        --------------------------------------------------------
                        Mixing method:                            BROYDEN_MIXING
                                                charge density mixing in g-space
                        --------------------------------------------------------
                        Smear method:                                FERMI_DIRAC
                        Electronic temperature [K]:                        300.0
                        Electronic temperature [a.u.]:                  9.50E-04
                        Accuracy threshold:                             1.00E-10
                        --------------------------------------------------------
                        Outer loop SCF in use 
                        No variables optimised in outer loop
                        eps_scf                                         1.00E-06
                        max_scf                                              300
                        DIIS optimization
                        DIIS buffer length                                     3
                        step_size                                       5.00E-01

 Number of electrons:                                                        768
 Number of occupied orbitals:                                                384
 Number of molecular orbitals:                                               484

 Number of orbital functions:                                               2505
 Number of independent orbital functions:                                   2505

 Extrapolation method: initial_guess


 SCF WAVEFUNCTION OPTIMIZATION

  Step     Update method      Time    Convergence         Total energy    Change
  ------------------------------------------------------------------------------
     1 NoMix/Diag. 0.10E+00    3.6     0.92601545     -1085.8946863414 -1.09E+03
     2 Broy./Diag. 0.10E+00    4.8     0.00233455     -1044.3845989384  4.15E+01
     3 Broy./Diag. 0.10E+00    4.9     0.02594781     -1076.4902521051 -3.21E+01
     4 Broy./Diag. 0.10E+00    4.9     0.00034358     -1090.1685419574 -1.37E+01
     5 Broy./Diag. 0.10E+00    4.9     0.00234541     -1090.7535439929 -5.85E-01
     6 Broy./Diag. 0.10E+00    4.9     0.00009863     -1091.9286380421 -1.18E+00
     7 Broy./Diag. 0.10E+00    5.0     0.00082591     -1092.4504879190 -5.22E-01
     8 Broy./Diag. 0.10E+00    5.0     0.00004724     -1092.8166164650 -3.66E-01
     9 Broy./Diag. 0.10E+00    5.1     0.00066192     -1092.9907657972 -1.74E-01
    10 Broy./Diag. 0.10E+00    5.2     0.00005015     -1093.2116083581 -2.21E-01
    11 Broy./Diag. 0.10E+00    5.1     0.00064732     -1093.1688253005  4.28E-02
    12 Broy./Diag. 0.10E+00    5.2     0.00002812     -1093.2480661838 -7.92E-02
    13 Broy./Diag. 0.10E+00    5.2     0.00047694     -1093.2840417728 -3.60E-02
    14 Broy./Diag. 0.10E+00    5.2     0.00005126     -1093.3234755107 -3.94E-02
    15 Broy./Diag. 0.10E+00    5.2     0.00034091     -1093.3599809737 -3.65E-02
    16 Broy./Diag. 0.10E+00    5.2     0.00004760     -1093.3779522808 -1.80E-02
    17 Broy./Diag. 0.10E+00    5.2     0.00006726     -1093.3571838439  2.08E-02
    18 Broy./Diag. 0.10E+00    5.2     0.00001337     -1093.3472183236  9.97E-03
    19 Broy./Diag. 0.10E+00    5.2     0.00002979     -1093.3455051751  1.71E-03
    20 Broy./Diag. 0.10E+00    5.2     0.00000642     -1093.3495463058 -4.04E-03
    21 Broy./Diag. 0.10E+00    5.2     0.00001492     -1093.3511188543 -1.57E-03
    22 Broy./Diag. 0.10E+00    5.2     0.00001042     -1093.3549047074 -3.79E-03
    23 Broy./Diag. 0.10E+00    5.2     0.00000493     -1093.3586142702 -3.71E-03
    24 Broy./Diag. 0.10E+00    5.2     0.00004256     -1093.3580934997  5.21E-04
    25 Broy./Diag. 0.10E+00    5.2     0.00000795     -1093.3597970187 -1.70E-03
    26 Broy./Diag. 0.10E+00    5.2     0.00003271     -1093.3606303632 -8.33E-04
    27 Broy./Diag. 0.10E+00    5.2     0.00000825     -1093.3629244293 -2.29E-03
    28 Broy./Diag. 0.10E+00    5.2     0.00001132     -1093.3658484001 -2.92E-03
    29 Broy./Diag. 0.10E+00    5.2     0.00000357     -1093.3672759317 -1.43E-03
    30 Broy./Diag. 0.10E+00    5.2     0.00000436     -1093.3672102662  6.57E-05
    31 Broy./Diag. 0.10E+00    5.1     0.00000915     -1093.3670364013  1.74E-04
    32 Broy./Diag. 0.10E+00    5.1     0.00000169     -1093.3681187195 -1.08E-03
    33 Broy./Diag. 0.10E+00    5.1     0.00000460     -1093.3675445990  5.74E-04
    34 Broy./Diag. 0.10E+00    5.1     0.00000210     -1093.3678984336 -3.54E-04
    35 Broy./Diag. 0.10E+00    5.1     0.00000581     -1093.3693531311 -1.45E-03
    36 Broy./Diag. 0.10E+00    5.1     0.00000456     -1093.3699554567 -6.02E-04
    37 Broy./Diag. 0.10E+00    5.1     0.00001014     -1093.3698913201  6.41E-05
    38 Broy./Diag. 0.10E+00    5.2     0.00000270     -1093.3695793273  3.12E-04
    39 Broy./Diag. 0.10E+00    5.2     0.00000307     -1093.3694581606  1.21E-04
    40 Broy./Diag. 0.10E+00    5.1     0.00000556     -1093.3701999300 -7.42E-04
    41 Broy./Diag. 0.10E+00    5.1     0.00000122     -1093.3710520724 -8.52E-04
    42 Broy./Diag. 0.10E+00    5.2     0.00000172     -1093.3713858263 -3.34E-04
    43 Broy./Diag. 0.10E+00    5.2     0.00000109     -1093.3715375657 -1.52E-04
    44 Broy./Diag. 0.10E+00    5.1     0.00000119     -1093.3715889393 -5.14E-05
    45 Broy./Diag. 0.10E+00    5.1     0.00000139     -1093.3714222253  1.67E-04
    46 Broy./Diag. 0.10E+00    5.2     0.00000098     -1093.3713617925  6.04E-05
    47 Broy./Diag. 0.10E+00    5.2     0.00000283     -1093.3714248037 -6.30E-05
    48 Broy./Diag. 0.10E+00    5.2     0.00000096     -1093.3715940997 -1.69E-04
    49 Broy./Diag. 0.10E+00    5.2     0.00000207     -1093.3717421942 -1.48E-04
    50 Broy./Diag. 0.10E+00    5.2     0.00000066     -1093.3717212833  2.09E-05
    51 Broy./Diag. 0.10E+00    5.1     0.00000034     -1093.3716574133  6.39E-05
    52 Broy./Diag. 0.10E+00    5.2     0.00000076     -1093.3716457508  1.17E-05
    53 Broy./Diag. 0.10E+00    5.2     0.00000023     -1093.3716941325 -4.84E-05

  *** SCF run converged in    53 steps ***


  Electronic density on regular grids:       -767.9999999984        0.0000000016
  Core density on regular grids:              767.9999999993       -0.0000000007
  Total charge density on r-space grids:        0.0000000009
  Total charge density g-space grids:           0.0000000009

  Overlap energy of the core charge distribution:               0.00003001097685
  Self energy of the core charge distribution:              -2560.32152193892080
  Core Hamiltonian energy:                                    801.02686397571756
  Hartree energy:                                            1001.35872304983718
  Exchange-correlation energy:                               -335.18931098406040
  Dispersion energy:                                           -0.24647807669622
  Electronic entropic energy:                                  -0.00000016935903
  Fermi energy:                                                -0.10923272806681

  Total energy:                                             -1093.37169413250444

  outer SCF iter =    1 RMS gradient =   0.23E-06 energy =      -1093.3716941325
  outer SCF loop converged in   1 iterations or   53 steps


 *** WARNING in qs_loc_utils.F:1500 :: User requested the calculation of ***
 *** the localized wavefunction but the section LOCALIZE was not         ***
 *** specified. Localization will not be performed!                      ***


 -------------------------------------------------------------------------------
 -                                                                             -
 -  BSSE CALCULATION         FRAGMENT CONF: 11        FRAGMENT SUBCONF: 01     -
 -                           CHARGE =     0           MULTIPLICITY =     0     -
 -                                                                             -
 -                 ATOM INDEX                              ATOM NAME           -
 -                 ----------                              ---------           -
 -                      1                                   C_ghost            -
 -                      2                                   C_ghost            -
 -                      3                                   C_ghost            -
 -                      4                                   C_ghost            -
 -                      5                                   C_ghost            -
 -                      6                                   C_ghost            -
 -                      7                                   C_ghost            -
 -                      8                                   C_ghost            -
 -                      9                                   C_ghost            -
 -                     10                                   C_ghost            -
 -                     11                                   C_ghost            -
 -                     12                                   C_ghost            -
 -                     13                                   C_ghost            -
 -                     14                                   C_ghost            -
 -                     15                                   C_ghost            -
 -                     16                                   C_ghost            -
 -                     17                                   C_ghost            -
 -                     18                                   C_ghost            -
 -                     19                                   C_ghost            -
 -                     20                                   C_ghost            -
 -                     21                                   C_ghost            -
 -                     22                                   C_ghost            -
 -                     23                                   C_ghost            -
 -                     24                                   C_ghost            -
 -                     25                                   C_ghost            -
 -                     26                                   C_ghost            -
 -                     27                                   C_ghost            -
 -                     28                                   C_ghost            -
 -                     29                                   C_ghost            -
 -                     30                                   C_ghost            -
 -                     31                                   C_ghost            -
 -                     32                                   C_ghost            -
 -                     33                                   C_ghost            -
 -                     34                                   C_ghost            -
 -                     35                                   C_ghost            -
 -                     36                                   C_ghost            -
 -                     37                                   C_ghost            -
 -                     38                                   C_ghost            -
 -                     39                                   C_ghost            -
 -                     40                                   C_ghost            -
 -                     41                                   C_ghost            -
 -                     42                                   C_ghost            -
 -                     43                                   C_ghost            -
 -                     44                                   C_ghost            -
 -                     45                                   C_ghost            -
 -                     46                                   C_ghost            -
 -                     47                                   C_ghost            -
 -                     48                                   C_ghost            -
 -                     49                                   C_ghost            -
 -                     50                                   C_ghost            -
 -                     51                                   C_ghost            -
 -                     52                                   C_ghost            -
 -                     53                                   C_ghost            -
 -                     54                                   C_ghost            -
 -                     55                                   C_ghost            -
 -                     56                                   C_ghost            -
 -                     57                                   C_ghost            -
 -                     58                                   C_ghost            -
 -                     59                                   C_ghost            -
 -                     60                                   C_ghost            -
 -                     61                                   C_ghost            -
[...]
    37 Broy./Diag. 0.10E+00    5.2     0.00000573     -1140.5796350200  3.41E-04
    38 Broy./Diag. 0.10E+00    5.2     0.00000562     -1140.5795566894  7.83E-05
    39 Broy./Diag. 0.10E+00    5.2     0.00000387     -1140.5796821570 -1.25E-04
    40 Broy./Diag. 0.10E+00    5.2     0.00000724     -1140.5800044719 -3.22E-04
    41 Broy./Diag. 0.10E+00    5.2     0.00000234     -1140.5801000213 -9.55E-05
    42 Broy./Diag. 0.10E+00    5.2     0.00000160     -1140.5799865711  1.13E-04
    43 Broy./Diag. 0.10E+00    5.1     0.00000711     -1140.5799382055  4.84E-05
    44 Broy./Diag. 0.10E+00    5.2     0.00000159     -1140.5799586449 -2.04E-05
    45 Broy./Diag. 0.10E+00    5.2     0.00000194     -1140.5799797928 -2.11E-05
    46 Broy./Diag. 0.10E+00    5.2     0.00000020     -1140.5799425796  3.72E-05

  *** SCF run converged in    46 steps ***


  Electronic density on regular grids:       -777.0004003416       -0.0004003416
  Core density on regular grids:              776.9999999993       -0.0000000007
  Total charge density on r-space grids:       -0.0004003422
  Total charge density g-space grids:          -0.0004003422

  Overlap energy of the core charge distribution:               0.00003001097685
  Self energy of the core charge distribution:              -2656.92801213334678
  Core Hamiltonian energy:                                    831.22988926718949
  Hartree energy:                                            1027.86093969676267
  Exchange-correlation energy:                               -342.49103695740013
  Dispersion energy:                                           -0.24961717150306
  Electronic entropic energy:                                  -0.00213529221252
  Fermi energy:                                                -0.08886326342856

  Total energy:                                             -1140.57994257956102

  outer SCF iter =    1 RMS gradient =   0.20E-06 energy =      -1140.5799425796
  outer SCF loop converged in   1 iterations or   46 steps


 *** WARNING in qs_loc_utils.F:1500 :: User requested the calculation of ***
 *** the localized wavefunction but the section LOCALIZE was not         ***
 *** specified. Localization will not be performed!                      ***


 -------------------------------------------------------------------------------
 -                                                                             -
 -                                 BSSE RESULTS                                -
 -                                                                             -
 -                 CP-corrected Total energy:    -1140.578247                  -
 -                                                                             -
 -                       1-body contribution:    -1093.370554                  -
 -                       1-body contribution:      -47.167177                  -
 -                                                                             -
 -                       2-body contribution:       -0.040517                  -
 -                 BSSE-free interaction energy:       -0.040517               -
 -------------------------------------------------------------------------------

 -------------------------------------------------------------------------------
 -                                                                             -
 -                                DBCSR STATISTICS                             -
 -                                                                             -
 -------------------------------------------------------------------------------
 COUNTER                                    TOTAL       BLAS       SMM       ACC
 flops     9 x     9 x     9                90396     100.0%      0.0%      0.0%
 flops     9 x     9 x    32               559872     100.0%      0.0%      0.0%
 flops     9 x     9 x   105               782460     100.0%      0.0%      0.0%
 flops     9 x     9 x   100               858600     100.0%      0.0%      0.0%
 flops    13 x     9 x     9              5155488     100.0%      0.0%      0.0%
 flops     9 x    13 x     9              5610384     100.0%      0.0%      0.0%
 flops     9 x     9 x   128              6158592     100.0%      0.0%      0.0%
 flops    13 x     9 x    32             54991872     100.0%      0.0%      0.0%
 flops     9 x    13 x    32             59844096     100.0%      0.0%      0.0%
 flops    13 x     9 x   105             76854960     100.0%      0.0%      0.0%
 flops     9 x    13 x   105             83636280     100.0%      0.0%      0.0%
 flops    13 x     9 x   100             84333600     100.0%      0.0%      0.0%
 flops     9 x    13 x   100             91774800     100.0%      0.0%      0.0%
 flops    13 x     9 x   128            604910592     100.0%      0.0%      0.0%
 flops     9 x    13 x   128            658285056     100.0%      0.0%      0.0%
 flops    13 x    13 x     9           1258292880     100.0%      0.0%      0.0%
 flops    13 x    13 x    32          13421790720     100.0%      0.0%      0.0%
 flops    13 x    13 x   105          18757884600     100.0%      0.0%      0.0%
 flops    13 x    13 x   100          40389648000     100.0%      0.0%      0.0%
 flops    13 x    13 x   128         223696512000     100.0%      0.0%      0.0%
 flops inhomo. stacks                           0       0.0%      0.0%      0.0%
 flops total                       299.257975E+09     100.0%      0.0%      0.0%
 flops max/rank                     19.479690E+09     100.0%      0.0%      0.0%
 matmuls inhomo. stacks                         0       0.0%      0.0%      0.0%
 matmuls total                            8625806     100.0%      0.0%      0.0%
 number of processed stacks                 16250     100.0%      0.0%      0.0%
 average stack size                                   530.8       0.0       0.0
 marketing flops                   733.312254E+09
 -------------------------------------------------------------------------------
 # multiplications                            212
 max memory usage/rank             877.883392E+06
 # max total images/rank                        1
 # max 3D layers                                1
 # MPI messages exchanged                   20352
 MPI messages size (bytes):
  total size                         9.201021E+09
  min size                           0.000000E+00
  max size                         648.192000E+03
  average size                     452.094188E+03
 MPI breakdown and total messages size (bytes):
             size <=      128                2340                        0
       128 < size <=     8192                 156                   101088
      8192 < size <=    32768                   0                        0
     32768 < size <=   131072                 864                 38957760
    131072 < size <=  4194304               16992               9161965152
   4194304 < size <= 16777216                   0                        0
  16777216 < size                               0                        0
 -------------------------------------------------------------------------------
 -                                                                             -
 -                      DBCSR MESSAGE PASSING PERFORMANCE                      -
 -                                                                             -
 -------------------------------------------------------------------------------
 ROUTINE             CALLS      AVE VOLUME [Bytes]
 MP_Bcast               21                     12.
 MP_Allreduce         1548                      9.
 MP_Alltoall          5996                 480397.
 MP_ISend             3392                 182452.
 MP_IRecv             3392                 168177.
 -------------------------------------------------------------------------------

 -------------------------------------------------------------------------------
 -                                                                             -
 -                                DBM STATISTICS                               -
 -                                                                             -
 -------------------------------------------------------------------------------
    M  x    N  x    K                                          COUNT     PERCENT
 -------------------------------------------------------------------------------

 -------------------------------------------------------------------------------
 -                                                                             -
 -                                GRID STATISTICS                              -
 -                                                                             -
 -------------------------------------------------------------------------------
 LP    KERNEL             BACKEND                              COUNT     PERCENT
 4     collocate ortho    REF                               21911750      50.07%
 4     integrate ortho    REF                               21450450      49.01%
 3     collocate ortho    REF                                 189612       0.43%
 3     integrate ortho    REF                                 185490       0.42%
 0     collocate general  REF                                   9264       0.02%
 2     collocate ortho    REF                                   8415       0.02%
 2     integrate ortho    REF                                   8211       0.02%
 -------------------------------------------------------------------------------

 MEMORY| Estimated peak process memory [MiB]                                 838

 -------------------------------------------------------------------------------
 -                                                                             -
 -                         MESSAGE PASSING PERFORMANCE                         -
 -                                                                             -
 -------------------------------------------------------------------------------

 ROUTINE             CALLS      AVE VOLUME [Bytes]
 MP_Group               24
 MP_Bcast              577                1674405.
 MP_Allreduce         3009                   1610.
 MP_Sync               262
 MP_Alltoall          2856               23438007.
 MP_SendRecv          9054                 213358.
 MP_ISendRecv         6360                 161680.
 MP_Wait             15853
 MP_comm_split          26
 MP_ISend             6904                1392606.
 MP_IRecv             6904                1392584.
 MP_Recv               145                 618734.
 -------------------------------------------------------------------------------


 -------------------------------------------------------------------------------
 -                                                                             -
 -                           R E F E R E N C E S                               -
 -                                                                             -
 -------------------------------------------------------------------------------
 
 CP2K version 2023.1, the CP2K developers group (2023).
 CP2K is freely available from https://www.cp2k.org/ .

 Kuehne,Thomas D.; Iannuzzi,Marcella; Del Ben,Mauro;
 Rybkin,Vladimir V.; Seewald,Patrick; Stein,Frederick; Laino,Teodoro;
 Khaliullin,Rustam Z.; Schuett,Ole; Schiffmann,Florian; Golze,Dorothea;
 Wilhelm,Jan; Chulkov,Sergey; Bani-Hashemian,Mohammad Hossein;
 Weber,Valery; Borstnik,Urban; Taillefumier,Mathieu;
 Jakobovits,Alice Shoshana; Lazzaro,Alfio; Pabst,Hans; Mueller,Tiziano;
 Schade,Robert; Guidon,Manuel; Andermatt,Samuel; Holmberg,Nico;
 Schenter,Gregory K.; Hehn,Anna; Bussy,Augustin; Belleflamme,Fabian;
 Tabacchi,Gloria; Gloess,Andreas; Lass,Michael; Bethune,Iain;
 Mundy,Christopher J.; Plessl,Christian; Watkins,Matt;
 VandeVondele,Joost; Krack,Matthias; Hutter,Juerg. 
 The Journal of Chemical Physics, 152 (19), (2020). 
 CP2K: An electronic structure and molecular dynamics software package -
 Quickstep: Efficient and accurate electronic structure calculations.
 https://doi.org/10.1063/5.0007045

 Goerigk, Lars; Hansen, Andreas; Bauer, Christoph; Ehrlich, Stephan;
 Najibi, Asim; Grimme, Stefan. , 19 (48), (2017). 
 A look at the density functional theory zoo with the advanced GMTKN55 database
 for general main group thermochemistry, kinetics and noncovalent interactions.
 https://doi.org/10.1039/C7CP04913G

 Schuett, Ole; Messmer, Peter; Hutter, Juerg; VandeVondele, Joost. 
 Electronic Structure Calculations on Graphics Processing Units, John
 Wiley & Sons, Ltd, 173-190 (2016). 
 GPU-Accelerated Sparse Matrix-Matrix Multiplication for
 Linear Scaling Density Functional Theory.
 https://doi.org/10.1002/9781118670712.ch8

 Borstnik, U; VandeVondele, J; Weber, V; Hutter, J. 
 PARALLEL COMPUTING, 40 (5-6), 47-58 (2014). 
 Sparse matrix multiplication: The distributed block-compressed sparse
 row library.
 https://doi.org/10.1016/j.parco.2014.03.012

 Hutter, J; Iannuzzi, M; Schiffmann, F; VandeVondele, J. 
 WIREs Comput Mol Sci., 4 (1), 15-25 (2014). 
 CP2K: atomistic simulations of condensed matter systems.
 https://doi.org/10.1002/wcms.1159

 Marek, A; Blum, V; Johanni, R; Havu, V; Lang, B; Auckenthaler, T;
 Heinecke, A; Bungartz, H; Lederer, H. 
 Journal of Physics: Condensed Matter, 26 (21), (2014). 
 The ELPA library: scalable parallel eigenvalue solutions for
 electronic structure
 theory and computational science.
 https://doi.org/10.1088/0953-8984/26/21/213201

 Grimme, S; Ehrlich, S; Goerigk, L. 
 JOURNAL OF COMPUTATIONAL CHEMISTRY, 32, 1456 (2011). 
 Effect of the damping function in dispersion corrected density functional theory.
 https://doi.org/10.1002/jcc.21759

 Grimme, S; Antony, J; Ehrlich, S; Krieg, H. 
 JOURNAL OF CHEMICAL PHYSICS, 132 (15), 154104 (2010). 
 A consistent and accurate ab initio parametrization of density
 functional dispersion correction (DFT-D) for the 94 elements H-Pu.
 https://doi.org/10.1063/1.3382344

 VandeVondele, J; Hutter, J. 
 JOURNAL OF CHEMICAL PHYSICS, 127 (11), 114105 (2007). 
 Gaussian basis sets for accurate calculations on molecular systems in
 gas and condensed phases.
 https://doi.org/10.1063/1.2770708

 Krack, M. 
 THEORETICAL CHEMISTRY ACCOUNTS, 114 (1-3), 145-152 (2005). 
 Pseudopotentials for H to Kr optimized for gradient-corrected
 exchange-correlation functionals.
 https://doi.org/10.1007/s00214-005-0655-y

 VandeVondele, J; Krack, M; Mohamed, F; Parrinello, M; Chassaing, T;
 Hutter, J. COMPUTER PHYSICS COMMUNICATIONS, 167 (2), 103-128 (2005). 
 QUICKSTEP: Fast and accurate density functional calculations using a
 mixed Gaussian and plane waves approach.
 https://doi.org/10.1016/j.cpc.2004.12.014

 Frigo, M; Johnson, SG. 
 PROCEEDINGS OF THE IEEE, 93 (2), 216-231 (2005). 
 The design and implementation of FFTW3.
 https://doi.org/10.1109/JPROC.2004.840301

 Hartwigsen, C; Goedecker, S; Hutter, J. 
 PHYSICAL REVIEW B, 58 (7), 3641-3662 (1998). 
 Relativistic separable dual-space Gaussian pseudopotentials from H to Rn.
 https://doi.org/10.1103/PhysRevB.58.3641

 Lippert, G; Hutter, J; Parrinello, M. 
 MOLECULAR PHYSICS, 92 (3), 477-487 (1997). 
 A hybrid Gaussian and plane wave density functional scheme.
 https://doi.org/10.1080/002689797170220

 Perdew, JP; Burke, K; Ernzerhof, M. 
 PHYSICAL REVIEW LETTERS, 77 (18), 3865-3868 (1996). 
 Generalized gradient approximation made simple.
 https://doi.org/10.1103/PhysRevLett.77.3865

 Goedecker, S; Teter, M; Hutter, J. 
 PHYSICAL REVIEW B, 54 (3), 1703-1710 (1996). 
 Separable dual-space Gaussian pseudopotentials.
 https://doi.org/10.1103/PhysRevB.54.1703


 -------------------------------------------------------------------------------
 -                                                                             -
 -                                T I M I N G                                  -
 -                                                                             -
 -------------------------------------------------------------------------------
 SUBROUTINE                       CALLS  ASD         SELF TIME        TOTAL TIME
                                MAXIMUM       AVERAGE  MAXIMUM  AVERAGE  MAXIMUM
 CP2K                                 1  1.0    0.018    0.056  984.675  984.683
 qs_energies                          5  2.0    0.000    0.000  982.167  982.857
 scf_env_do_scf                       5  3.0    0.001    0.003  974.471  975.161
 scf_env_do_scf_inner_loop          212  4.0    0.007    0.033  974.470  975.157
 qs_scf_new_mos                     212  5.0    0.003    0.004  408.491  408.788
 eigensolver                        212  6.0    0.013    0.017  398.574  398.663
 qs_ks_update_qs_env                212  5.0    0.001    0.001  270.759  270.815
 rebuild_ks_matrix                  212  6.0    0.001    0.001  270.548  270.603
 qs_ks_build_kohn_sham_matrix       212  7.0    0.032    0.035  270.547  270.602
 cp_fm_diag_elpa                    186  7.0    0.001    0.001  242.835  242.882
 cp_fm_diag_elpa_base               186  8.0  241.277  241.713  242.768  242.768
 qs_rho_update_rho_low              217  5.0    0.001    0.001  196.789  196.848
 calculate_rho_elec                 217  6.0    0.774    0.827  196.788  196.847
 sum_up_and_integrate               212  8.0    2.094    2.121  174.003  174.056
 integrate_v_rspace                 212  9.0    0.006    0.007  171.908  171.962
 density_rs2pw                      217  7.0    0.017    0.019  127.385  167.328
 pw_transfer                       2781  8.9    0.209    0.252  156.042  157.220
 cp_fm_triangular_multiply          636  7.0  154.345  154.767  154.345  154.767
 fft_wrap_pw1pw2                   2357  9.9    0.030    0.036  151.685  152.768
 fft_wrap_pw1pw2_150               1070 10.2   14.471   14.616  141.249  142.765
 grid_integrate_task_list           212 10.0   67.586  124.770   67.586  124.770
 grid_collocate_task_list           217  7.0   67.246  119.676   67.246  119.676
 rs_pw_transfer                    1721  9.5    0.027    0.030   74.068  114.241
 fft3d_ps                          2357 11.9   61.314   61.982  111.202  112.227
 gspace_mixing                      207  5.0    0.741    0.793  102.114  102.114
 mp_alltoall_d11v                  3003  9.3   58.686  101.068   58.686  101.068
 rs_gather_matrices                 212 10.0    0.154    0.182   57.446   99.810
 mp_waitany                        6904 11.5   57.204   97.564   57.204   97.564
 rs_pw_transfer_RS2PW_150           222  9.0    3.220    4.168   55.781   97.417
 broyden_mixing                     207  6.0   72.734   73.185   73.418   73.531
 qs_vxc_create                      212  8.0    0.009    0.010   53.179   53.629
 xc_vxc_pw_create                   212  9.0    2.517    2.955   53.171   53.620
 potential_pw2rs                    212 10.0    0.113    0.120   46.870   46.914
 xc_rho_set_and_dset_create         212 10.0    3.010    3.579   38.685   41.133
 x_to_yz                           1272 13.2   24.805   25.369   31.917   32.559
 xc_functional_eval                 212 11.0    0.003    0.004   24.216   26.455
 pbe_lda_eval                       212 12.0   24.213   26.451   24.213   26.451
 -------------------------------------------------------------------------------

 The number of warnings for this run is : 6
 
 -------------------------------------------------------------------------------
  **** **** ******  **  PROGRAM ENDED AT                 2025-06-15 00:40:33.421
 ***** ** ***  *** **   PROGRAM RAN ON                                sebnode120
 **    ****   ******    PROGRAM RAN BY                                    luehrs
 ***** **    ** ** **   PROGRAM PROCESS ID                                582787
  **** **  *******  **  PROGRAM STOPPED IN /home/luehrs/PhD/Sodium_batteries/Sod
                                           ium-graphene-curvature/Sinus_surface/
                                           Sinus_3
