 DBCSR| CPU Multiplication driver                                           BLAS (U)
 DBCSR| Multrec recursion limit                                              512 (U)
 DBCSR| Multiplication stack size                                           1000 (D)
 DBCSR| Maximum elements for images                                    UNLIMITED (U)
 DBCSR| Multiplicative factor virtual images                                   1 (U)
 DBCSR| Use multiplication densification                                       T (D)
 DBCSR| Multiplication size stacks                                             3 (U)
 DBCSR| Use memory pool for CPU allocation                                     F (U)
 DBCSR| Number of 3D layers                                               SINGLE (U)
 DBCSR| Use MPI memory allocation                                              F (U)
 DBCSR| Use RMA algorithm                                                      F (U)
 DBCSR| Use Communication thread                                               T (U)
 DBCSR| Communication thread load                                             87 (D)
 DBCSR| MPI: My process id                                                     0
 DBCSR| MPI: Number of processes                                              16
 DBCSR| OMP: Current number of threads                                         1
 DBCSR| OMP: Max number of threads                                             1
 DBCSR| Split modifier for TAS multiplication algorithm                  1.0E+00 (U)


  **** **** ******  **  PROGRAM STARTED AT               2025-07-15 14:41:21.442
 ***** ** ***  *** **   PROGRAM STARTED ON                            sebnode121
 **    ****   ******    PROGRAM STARTED BY                                luehrs
 ***** **    ** ** **   PROGRAM PROCESS ID                                642689
  **** **  *******  **  PROGRAM STARTED IN /home/luehrs/PhD/Sodium_batteries/Sod
                                           ium-graphene-curvature/Sinus_surface/
                                           Sinus_3

 CP2K| version string:                                       CP2K version 2023.1
 CP2K| source code revision number:                                  git:b888bd8
 CP2K| cp2kflags: omp libint fftw3 libxc elpa parallel scalapack spglib         
 CP2K| is freely available from                            https://www.cp2k.org/
 CP2K| Program compiled at                          Tue Jan 10 19:52:03 UTC 2023
 CP2K| Program compiled on                                            x86-ubc-01
 CP2K| Program compiled for                                Linux-x86_64-gfortran
 CP2K| Data directory path                                       /usr/share/cp2k
 CP2K| Input file name                                         input.zig-zag.inp

 GLOBAL| Force Environment number                                              1
 GLOBAL| Basis set file name                                      ./BASIS_MOLOPT
 GLOBAL| Potential file name                                    ./GTH_POTENTIALS
 GLOBAL| MM Potential file name                                     MM_POTENTIAL
 GLOBAL| Coordinate file name                                 sinus3_relaxed.xyz
 GLOBAL| Method name                                                        CP2K
 GLOBAL| Project name                            graphene_sinus_Sodium_BSSE_CDFT
 GLOBAL| Run type                                                           BSSE
 GLOBAL| FFT library                                                       FFTW3
 GLOBAL| Diagonalization library                                            ELPA
 GLOBAL| DGEMM library                                                      BLAS
 GLOBAL| Minimum number of eigenvectors for ELPA usage                        16
 GLOBAL| Orthonormality check for eigenvectors                          DISABLED
 GLOBAL| Matrix multiplication library                                 ScaLAPACK
 GLOBAL| All-to-all communication in single precision                          F
 GLOBAL| FFTs using library dependent lengths                                  F
 GLOBAL| Grid backend                                                       AUTO
 GLOBAL| Global print level                                                  LOW
 GLOBAL| MPI I/O enabled                                                       T
 GLOBAL| Total number of message passing processes                            16
 GLOBAL| Number of threads for this process                                    1
 GLOBAL| This output is from process                                           0
 GLOBAL| Stack size for threads created by OpenMP (OMP_STACKSIZE)        default
 GLOBAL| CPU model name                 Intel(R) Xeon(R) Gold 6144 CPU @ 3.50GHz

 MEMORY| system memory details [Kb]
 MEMORY|                        rank 0           min           max       average
 MEMORY| MemTotal             65585096      65585096      65585096      65585096
 MEMORY| MemFree              63016964      63016964      63016964      63016964
 MEMORY| Buffers                269272        269272        269272        269272
 MEMORY| Cached                 343544        343544        343544        343544
 MEMORY| Slab                   228456        228456        228456        228456
 MEMORY| SReclaimable            88124         88124         88124         88124
 MEMORY| MemLikelyFree        63717904      63717904      63717904      63717904


 GENERATE|  Preliminary Number of Bonds generated:                             0
 GENERATE|  Achieved consistency in connectivity generation.

 *******************************************************************************
 *******************************************************************************
 **                                                                           **
 **     #####                         ##              ##                      **
 **    ##   ##            ##          ##              ##                      **
 **   ##     ##                       ##            ######                    **
 **   ##     ##  ##   ##  ##   #####  ##  ##   ####   ##    #####    #####    **
 **   ##     ##  ##   ##  ##  ##      ## ##   ##      ##   ##   ##  ##   ##   **
 **   ##  ## ##  ##   ##  ##  ##      ####     ###    ##   ######   ######    **
 **    ##  ###   ##   ##  ##  ##      ## ##      ##   ##   ##       ##        **
 **     #######   #####   ##   #####  ##  ##  ####    ##    #####   ##        **
 **           ##                                                    ##        **
 **                                                                           **
 **                                                ... make the atoms dance   **
 **                                                                           **
 **            Copyright (C) by CP2K developers group (2000-2022)             **
 **                      J. Chem. Phys. 152, 194103 (2020)                    **
 **                                                                           **
 *******************************************************************************


 TOTAL NUMBERS AND MAXIMUM NUMBERS

  Total number of            - Atomic kinds:                                   2
                             - Atoms:                                        193
                             - Shell sets:                                   193
                             - Shells:                                       965
                             - Primitive Cartesian functions:                967
                             - Cartesian basis functions:                   2697
                             - Spherical basis functions:                   2505

  Maximum angular momentum of- Orbital basis functions:                        2
                             - Local part of the GTH pseudopotential:          2
                             - Non-local part of the GTH pseudopotential:      1


 SCF PARAMETERS         Density guess:                                    ATOMIC
                        --------------------------------------------------------
                        max_scf:                                             300
                        max_scf_history:                                       0
                        max_diis:                                              4
                        --------------------------------------------------------
                        eps_scf:                                        3.00E-07
                        eps_scf_history:                                0.00E+00
                        eps_diis:                                       1.00E-01
                        eps_eigval:                                     1.00E-05
                        --------------------------------------------------------
                        level_shift [a.u.]:                             0.000000
                        added MOs                                       100    0
                        --------------------------------------------------------
                        Mixing method:                            BROYDEN_MIXING
                                                charge density mixing in g-space
                        --------------------------------------------------------
                        Smear method:                                FERMI_DIRAC
                        Electronic temperature [K]:                        300.0
                        Electronic temperature [a.u.]:                  9.50E-04
                        Accuracy threshold:                             1.00E-10
                        --------------------------------------------------------
                        Outer loop SCF in use 
                        No variables optimised in outer loop
                        eps_scf                                         1.00E-06
                        max_scf                                              300
                        DIIS optimization
                        DIIS buffer length                                     3
                        step_size                                       5.00E-01

 -------------------------------------------------------------------------------
 -                                                                             -
 -  BSSE CALCULATION         FRAGMENT CONF: 10        FRAGMENT SUBCONF: 10     -
 -                           CHARGE =     0           MULTIPLICITY =     0     -
 -                                                                             -
 -                 ATOM INDEX                              ATOM NAME           -
 -                 ----------                              ---------           -
 -                      1                                   C                  -
 -                      2                                   C                  -
 -                      3                                   C                  -
 -                      4                                   C                  -
 -                      5                                   C                  -
 -                      6                                   C                  -
 -                      7                                   C                  -
 -                      8                                   C                  -
 -                      9                                   C                  -
 -                     10                                   C                  -
 -                     11                                   C                  -
 -                     12                                   C                  -
 -                     13                                   C                  -
 -                     14                                   C                  -
 -                     15                                   C                  -
 -                     16                                   C                  -
 -                     17                                   C                  -
 -                     18                                   C                  -
 -                     19                                   C                  -
 -                     20                                   C                  -
 -                     21                                   C                  -
 -                     22                                   C                  -
 -                     23                                   C                  -
 -                     24                                   C                  -
 -                     25                                   C                  -
 -                     26                                   C                  -
 -                     27                                   C                  -
 -                     28                                   C                  -
 -                     29                                   C                  -
 -                     30                                   C                  -
 -                     31                                   C                  -
 -                     32                                   C                  -
 -                     33                                   C                  -
 -                     34                                   C                  -
 -                     35                                   C                  -
 -                     36                                   C                  -
 -                     37                                   C                  -
 -                     38                                   C                  -
 -                     39                                   C                  -
 -                     40                                   C                  -
 -                     41                                   C                  -
 -                     42                                   C                  -
 -                     43                                   C                  -
 -                     44                                   C                  -
 -                     45                                   C                  -
 -                     46                                   C                  -
 -                     47                                   C                  -
 -                     48                                   C                  -
 -                     49                                   C                  -
 -                     50                                   C                  -
 -                     51                                   C                  -
 -                     52                                   C                  -
 -                     53                                   C                  -
 -                     54                                   C                  -
 -                     55                                   C                  -
 -                     56                                   C                  -
 -                     57                                   C                  -
 -                     58                                   C                  -
 -                     59                                   C                  -
 -                     60                                   C                  -
 -                     61                                   C                  -
 -                     62                                   C                  -
 -                     63                                   C                  -
 -                     64                                   C                  -
 -                     65                                   C                  -
 -                     66                                   C                  -
 -                     67                                   C                  -
 -                     68                                   C                  -
 -                     69                                   C                  -
 -                     70                                   C                  -
 -                     71                                   C                  -
 -                     72                                   C                  -
 -                     73                                   C                  -
 -                     74                                   C                  -
 -                     75                                   C                  -
 -                     76                                   C                  -
 -                     77                                   C                  -
 -                     78                                   C                  -
 -                     79                                   C                  -
 -                     80                                   C                  -
 -                     81                                   C                  -
 -                     82                                   C                  -
 -                     83                                   C                  -
 -                     84                                   C                  -
 -                     85                                   C                  -
 -                     86                                   C                  -
 -                     87                                   C                  -
 -                     88                                   C                  -
 -                     89                                   C                  -
 -                     90                                   C                  -
 -                     91                                   C                  -
 -                     92                                   C                  -
 -                     93                                   C                  -
 -                     94                                   C                  -
 -                     95                                   C                  -
 -                     96                                   C                  -
 -                     97                                   C                  -
 -                     98                                   C                  -
 -                     99                                   C                  -
 -                    100                                   C                  -
 -                    101                                   C                  -
 -                    102                                   C                  -
 -                    103                                   C                  -
 -                    104                                   C                  -
 -                    105                                   C                  -
 -                    106                                   C                  -
 -                    107                                   C                  -
 -                    108                                   C                  -
 -                    109                                   C                  -
 -                    110                                   C                  -
 -                    111                                   C                  -
 -                    112                                   C                  -
 -                    113                                   C                  -
 -                    114                                   C                  -
 -                    115                                   C                  -
 -                    116                                   C                  -
 -                    117                                   C                  -
 -                    118                                   C                  -
 -                    119                                   C                  -
 -                    120                                   C                  -
 -                    121                                   C                  -
 -                    122                                   C                  -
 -                    123                                   C                  -
 -                    124                                   C                  -
 -                    125                                   C                  -
 -                    126                                   C                  -
 -                    127                                   C                  -
 -                    128                                   C                  -
 -                    129                                   C                  -
 -                    130                                   C                  -
 -                    131                                   C                  -
 -                    132                                   C                  -
 -                    133                                   C                  -
 -                    134                                   C                  -
 -                    135                                   C                  -
 -                    136                                   C                  -
 -                    137                                   C                  -
 -                    138                                   C                  -
 -                    139                                   C                  -
 -                    140                                   C                  -
 -                    141                                   C                  -
 -                    142                                   C                  -
 -                    143                                   C                  -
 -                    144                                   C                  -
 -                    145                                   C                  -
 -                    146                                   C                  -
 -                    147                                   C                  -
 -                    148                                   C                  -
 -                    149                                   C                  -
 -                    150                                   C                  -
 -                    151                                   C                  -
 -                    152                                   C                  -
 -                    153                                   C                  -
 -                    154                                   C                  -
 -                    155                                   C                  -
 -                    156                                   C                  -
 -                    157                                   C                  -
 -                    158                                   C                  -
 -                    159                                   C                  -
 -                    160                                   C                  -
 -                    161                                   C                  -
 -                    162                                   C                  -
 -                    163                                   C                  -
 -                    164                                   C                  -
 -                    165                                   C                  -
 -                    166                                   C                  -
 -                    167                                   C                  -
 -                    168                                   C                  -
 -                    169                                   C                  -
 -                    170                                   C                  -
 -                    171                                   C                  -
 -                    172                                   C                  -
 -                    173                                   C                  -
 -                    174                                   C                  -
 -                    175                                   C                  -
 -                    176                                   C                  -
 -                    177                                   C                  -
 -                    178                                   C                  -
 -                    179                                   C                  -
 -                    180                                   C                  -
 -                    181                                   C                  -
 -                    182                                   C                  -
 -                    183                                   C                  -
 -                    184                                   C                  -
 -                    185                                   C                  -
 -                    186                                   C                  -
 -                    187                                   C                  -
 -                    188                                   C                  -
 -                    189                                   C                  -
 -                    190                                   C                  -
 -                    191                                   C                  -
 -                    192                                   C                  -
 -------------------------------------------------------------------------------

 *******************************************************************************
 *******************************************************************************
 **                                                                           **
 **     #####                         ##              ##                      **
 **    ##   ##            ##          ##              ##                      **
 **   ##     ##                       ##            ######                    **
 **   ##     ##  ##   ##  ##   #####  ##  ##   ####   ##    #####    #####    **
 **   ##     ##  ##   ##  ##  ##      ## ##   ##      ##   ##   ##  ##   ##   **
 **   ##  ## ##  ##   ##  ##  ##      ####     ###    ##   ######   ######    **
 **    ##  ###   ##   ##  ##  ##      ## ##      ##   ##   ##       ##        **
 **     #######   #####   ##   #####  ##  ##  ####    ##    #####   ##        **
 **           ##                                                    ##        **
 **                                                                           **
 **                                                ... make the atoms dance   **
 **                                                                           **
 **            Copyright (C) by CP2K developers group (2000-2022)             **
 **                      J. Chem. Phys. 152, 194103 (2020)                    **
 **                                                                           **
 *******************************************************************************


 TOTAL NUMBERS AND MAXIMUM NUMBERS

  Total number of            - Atomic kinds:                                   1
                             - Atoms:                                        192
                             - Shell sets:                                   192
                             - Shells:                                       960
                             - Primitive Cartesian functions:                960
                             - Cartesian basis functions:                   2688
                             - Spherical basis functions:                   2496

  Maximum angular momentum of- Orbital basis functions:                        2
                             - Local part of the GTH pseudopotential:          2
                             - Non-local part of the GTH pseudopotential:      0


 SCF PARAMETERS         Density guess:                                    ATOMIC
                        --------------------------------------------------------
                        max_scf:                                             300
                        max_scf_history:                                       0
                        max_diis:                                              4
                        --------------------------------------------------------
                        eps_scf:                                        3.00E-07
                        eps_scf_history:                                0.00E+00
                        eps_diis:                                       1.00E-01
                        eps_eigval:                                     1.00E-05
                        --------------------------------------------------------
                        level_shift [a.u.]:                             0.000000
                        added MOs                                       100    0
                        --------------------------------------------------------
                        Mixing method:                            BROYDEN_MIXING
                                                charge density mixing in g-space
                        --------------------------------------------------------
                        Smear method:                                FERMI_DIRAC
                        Electronic temperature [K]:                        300.0
                        Electronic temperature [a.u.]:                  9.50E-04
                        Accuracy threshold:                             1.00E-10
                        --------------------------------------------------------
                        Outer loop SCF in use 
                        No variables optimised in outer loop
                        eps_scf                                         1.00E-06
                        max_scf                                              300
                        DIIS optimization
                        DIIS buffer length                                     3
                        step_size                                       5.00E-01

 Number of electrons:                                                        768
 Number of occupied orbitals:                                                384
 Number of molecular orbitals:                                               484

 Number of orbital functions:                                               2496
 Number of independent orbital functions:                                   2496

 Extrapolation method: initial_guess


 SCF WAVEFUNCTION OPTIMIZATION

  Step     Update method      Time    Convergence         Total energy    Change
  ------------------------------------------------------------------------------
     1 NoMix/Diag. 0.10E+00    3.6     0.92573062     -1085.8946863414 -1.09E+03
     2 Broy./Diag. 0.10E+00    4.8     0.00232744     -1044.3873617358  4.15E+01
     3 Broy./Diag. 0.10E+00    4.8     0.02586236     -1076.4963158327 -3.21E+01
     4 Broy./Diag. 0.10E+00    4.8     0.00034356     -1090.1693107511 -1.37E+01
     5 Broy./Diag. 0.10E+00    4.9     0.00234305     -1090.7548836437 -5.86E-01
     6 Broy./Diag. 0.10E+00    4.9     0.00009823     -1091.9287574394 -1.17E+00
     7 Broy./Diag. 0.10E+00    4.9     0.00083268     -1092.4504065293 -5.22E-01
     8 Broy./Diag. 0.10E+00    5.0     0.00004672     -1092.8157962550 -3.65E-01
     9 Broy./Diag. 0.10E+00    5.1     0.00066534     -1092.9899741778 -1.74E-01
    10 Broy./Diag. 0.10E+00    5.1     0.00005031     -1093.2103205340 -2.20E-01
    11 Broy./Diag. 0.10E+00    5.1     0.00067107     -1093.1678251792  4.25E-02
    12 Broy./Diag. 0.10E+00    5.1     0.00002805     -1093.2470274232 -7.92E-02
    13 Broy./Diag. 0.10E+00    5.1     0.00049191     -1093.2828137083 -3.58E-02
    14 Broy./Diag. 0.10E+00    5.1     0.00005141     -1093.3222307304 -3.94E-02
    15 Broy./Diag. 0.10E+00    5.1     0.00034925     -1093.3587382375 -3.65E-02
    16 Broy./Diag. 0.10E+00    5.1     0.00004865     -1093.3767761811 -1.80E-02
    17 Broy./Diag. 0.10E+00    5.1     0.00006889     -1093.3561408660  2.06E-02
    18 Broy./Diag. 0.10E+00    5.1     0.00001327     -1093.3461177362  1.00E-02
    19 Broy./Diag. 0.10E+00    5.1     0.00002569     -1093.3437945835  2.32E-03
    20 Broy./Diag. 0.10E+00    5.1     0.00000744     -1093.3468560324 -3.06E-03
    21 Broy./Diag. 0.10E+00    5.1     0.00001332     -1093.3477314900 -8.75E-04
    22 Broy./Diag. 0.10E+00    5.1     0.00001079     -1093.3513509522 -3.62E-03
    23 Broy./Diag. 0.10E+00    5.1     0.00000579     -1093.3550068728 -3.66E-03
    24 Broy./Diag. 0.10E+00    5.1     0.00003890     -1093.3543415798  6.65E-04
    25 Broy./Diag. 0.10E+00    5.1     0.00000522     -1093.3552321132 -8.91E-04
    26 Broy./Diag. 0.10E+00    5.1     0.00004060     -1093.3563257623 -1.09E-03
    27 Broy./Diag. 0.10E+00    5.1     0.00000662     -1093.3600805240 -3.75E-03
    28 Broy./Diag. 0.10E+00    5.1     0.00001264     -1093.3634998790 -3.42E-03
    29 Broy./Diag. 0.10E+00    5.1     0.00000554     -1093.3651544608 -1.65E-03
    30 Broy./Diag. 0.10E+00    5.1     0.00000426     -1093.3652022039 -4.77E-05
    31 Broy./Diag. 0.10E+00    5.1     0.00001110     -1093.3651065213  9.57E-05
    32 Broy./Diag. 0.10E+00    5.1     0.00000188     -1093.3666894911 -1.58E-03
    33 Broy./Diag. 0.10E+00    5.1     0.00000503     -1093.3660924789  5.97E-04
    34 Broy./Diag. 0.10E+00    5.1     0.00000315     -1093.3668078832 -7.15E-04
    35 Broy./Diag. 0.10E+00    5.1     0.00000430     -1093.3684537775 -1.65E-03
    36 Broy./Diag. 0.10E+00    5.1     0.00000844     -1093.3690927578 -6.39E-04
    37 Broy./Diag. 0.10E+00    5.1     0.00000615     -1093.3688003175  2.92E-04
    38 Broy./Diag. 0.10E+00    5.1     0.00000464     -1093.3680819364  7.18E-04
    39 Broy./Diag. 0.10E+00    5.1     0.00000256     -1093.3680726929  9.24E-06
    40 Broy./Diag. 0.10E+00    5.1     0.00000640     -1093.3690249244 -9.52E-04
    41 Broy./Diag. 0.10E+00    5.1     0.00000135     -1093.3700243348 -9.99E-04
    42 Broy./Diag. 0.10E+00    5.1     0.00000152     -1093.3702634996 -2.39E-04
    43 Broy./Diag. 0.10E+00    5.1     0.00000169     -1093.3704124890 -1.49E-04
    44 Broy./Diag. 0.10E+00    5.1     0.00000130     -1093.3704229409 -1.05E-05
    45 Broy./Diag. 0.10E+00    5.1     0.00000202     -1093.3701542014  2.69E-04
    46 Broy./Diag. 0.10E+00    5.1     0.00000141     -1093.3701759490 -2.17E-05
    47 Broy./Diag. 0.10E+00    5.1     0.00000260     -1093.3703443370 -1.68E-04
    48 Broy./Diag. 0.10E+00    5.1     0.00000123     -1093.3705821130 -2.38E-04
    49 Broy./Diag. 0.10E+00    5.1     0.00000137     -1093.3706785306 -9.64E-05
    50 Broy./Diag. 0.10E+00    5.1     0.00000086     -1093.3706144533  6.41E-05
    51 Broy./Diag. 0.10E+00    5.1     0.00000025     -1093.3705535684  6.09E-05

  *** SCF run converged in    51 steps ***


  Electronic density on regular grids:       -768.0000000000        0.0000000000
  Core density on regular grids:              767.9999999993       -0.0000000007
  Total charge density on r-space grids:       -0.0000000007
  Total charge density g-space grids:          -0.0000000007

  Overlap energy of the core charge distribution:               0.00003001097685
  Self energy of the core charge distribution:              -2560.32152193892080
  Core Hamiltonian energy:                                    801.03299213672608
  Hartree energy:                                            1001.35335970787685
  Exchange-correlation energy:                               -335.18893523900744
  Dispersion energy:                                           -0.24647807669622
  Electronic entropic energy:                                  -0.00000016931932
  Fermi energy:                                                -0.10926141994120

  Total energy:                                             -1093.37055356836413

  outer SCF iter =    1 RMS gradient =   0.25E-06 energy =      -1093.3705535684
  outer SCF loop converged in   1 iterations or   51 steps


 *** WARNING in qs_loc_utils.F:1500 :: User requested the calculation of ***
 *** the localized wavefunction but the section LOCALIZE was not         ***
 *** specified. Localization will not be performed!                      ***


 -------------------------------------------------------------------------------
 -                                                                             -
 -  BSSE CALCULATION         FRAGMENT CONF: 01        FRAGMENT SUBCONF: 01     -
 -                           CHARGE =     0           MULTIPLICITY =     0     -
 -                                                                             -
 -                 ATOM INDEX                              ATOM NAME           -
 -                 ----------                              ---------           -
 -                    193                                   Na                 -
 -------------------------------------------------------------------------------

 *******************************************************************************
 *******************************************************************************
 **                                                                           **
 **     #####                         ##              ##                      **
 **    ##   ##            ##          ##              ##                      **
 **   ##     ##                       ##            ######                    **
 **   ##     ##  ##   ##  ##   #####  ##  ##   ####   ##    #####    #####    **
 **   ##     ##  ##   ##  ##  ##      ## ##   ##      ##   ##   ##  ##   ##   **
 **   ##  ## ##  ##   ##  ##  ##      ####     ###    ##   ######   ######    **
 **    ##  ###   ##   ##  ##  ##      ## ##      ##   ##   ##       ##        **
 **     #######   #####   ##   #####  ##  ##  ####    ##    #####   ##        **
 **           ##                                                    ##        **
 **                                                                           **
 **                                                ... make the atoms dance   **
 **                                                                           **
 **            Copyright (C) by CP2K developers group (2000-2022)             **
 **                      J. Chem. Phys. 152, 194103 (2020)                    **
 **                                                                           **
 *******************************************************************************

 *** WARNING in qs_environment.F:1486 :: More added MOs requested than     ***
 *** available. The full set of unoccupied MOs will be used. Use           ***
 *** 'ADDED_MOS -1' to always use all available MOs and to get rid of this ***
 *** warning.                                                              ***



 TOTAL NUMBERS AND MAXIMUM NUMBERS

  Total number of            - Atomic kinds:                                   1
                             - Atoms:                                          1
                             - Shell sets:                                     1
                             - Shells:                                         5
                             - Primitive Cartesian functions:                  7
                             - Cartesian basis functions:                      9
                             - Spherical basis functions:                      9

  Maximum angular momentum of- Orbital basis functions:                        1
                             - Local part of the GTH pseudopotential:          2
                             - Non-local part of the GTH pseudopotential:      1


 SCF PARAMETERS         Density guess:                                    ATOMIC
                        --------------------------------------------------------
                        max_scf:                                             300
                        max_scf_history:                                       0
                        max_diis:                                              4
                        --------------------------------------------------------
                        eps_scf:                                        3.00E-07
                        eps_scf_history:                                0.00E+00
                        eps_diis:                                       1.00E-01
                        eps_eigval:                                     1.00E-05
                        --------------------------------------------------------
                        level_shift [a.u.]:                             0.000000
                        added MOs                                         4    0
                        --------------------------------------------------------
                        Mixing method:                            BROYDEN_MIXING
                                                charge density mixing in g-space
                        --------------------------------------------------------
                        Smear method:                                FERMI_DIRAC
                        Electronic temperature [K]:                        300.0
                        Electronic temperature [a.u.]:                  9.50E-04
                        Accuracy threshold:                             1.00E-10
                        --------------------------------------------------------
                        Outer loop SCF in use 
                        No variables optimised in outer loop
                        eps_scf                                         1.00E-06
                        max_scf                                              300
                        DIIS optimization
                        DIIS buffer length                                     3
                        step_size                                       5.00E-01

 Number of electrons:                                                          9
 Number of occupied orbitals:                                                  5
 Number of molecular orbitals:                                                 9

 Number of orbital functions:                                                  9
 Number of independent orbital functions:                                      9

 Extrapolation method: initial_guess


 SCF WAVEFUNCTION OPTIMIZATION

  Step     Update method      Time    Convergence         Total energy    Change
  ------------------------------------------------------------------------------
     1 NoMix/Diag. 0.10E+00    0.6     0.02074976       -47.1653314258 -4.72E+01
     2 Broy./Diag. 0.10E+00    1.2     0.00009782       -47.1219029312  4.34E-02
     3 Broy./Diag. 0.10E+00    1.3     0.00101031       -47.1632912416 -4.14E-02
     4 Broy./Diag. 0.10E+00    1.3     0.00002407       -47.1710495417 -7.76E-03
     5 Broy./Diag. 0.10E+00    1.4     0.00026050       -47.1710254877  2.41E-05
     6 Broy./Diag. 0.10E+00    1.4     0.00000867       -47.1711477676 -1.22E-04
     7 Broy./Diag. 0.10E+00    1.4     0.00014794       -47.1693795945  1.77E-03
     8 Broy./Diag. 0.10E+00    1.5     0.00001917       -47.1683887477  9.91E-04
     9 Broy./Diag. 0.10E+00    1.5     0.00019700       -47.1677606539  6.28E-04
    10 Broy./Diag. 0.10E+00    1.6     0.00000921       -47.1673877771  3.73E-04
    11 Broy./Diag. 0.10E+00    1.6     0.00009139       -47.1672144105  1.73E-04
    12 Broy./Diag. 0.10E+00    1.6     0.00000151       -47.1671782496  3.62E-05
    13 Broy./Diag. 0.10E+00    1.6     0.00000566       -47.1673001797 -1.22E-04
    14 Broy./Diag. 0.10E+00    1.6     0.00000081       -47.1673224429 -2.23E-05
    15 Broy./Diag. 0.10E+00    1.6     0.00001110       -47.1671478720  1.75E-04
    16 Broy./Diag. 0.10E+00    1.6     0.00000227       -47.1671271476  2.07E-05
    17 Broy./Diag. 0.10E+00    1.6     0.00000235       -47.1671784066 -5.13E-05
    18 Broy./Diag. 0.10E+00    1.6     0.00000205       -47.1672225058 -4.41E-05
    19 Broy./Diag. 0.10E+00    1.6     0.00000212       -47.1672405371 -1.80E-05
    20 Broy./Diag. 0.10E+00    1.6     0.00000189       -47.1672339823  6.55E-06
    21 Broy./Diag. 0.10E+00    1.6     0.00000222       -47.1672145995  1.94E-05
    22 Broy./Diag. 0.10E+00    1.6     0.00000259       -47.1671942957  2.03E-05
    23 Broy./Diag. 0.10E+00    1.6     0.00000359       -47.1671736305  2.07E-05
    24 Broy./Diag. 0.10E+00    1.6     0.00000074       -47.1671720089  1.62E-06
    25 Broy./Diag. 0.10E+00    1.6     0.00000033       -47.1671827423 -1.07E-05
    26 Broy./Diag. 0.10E+00    1.6     0.00000026       -47.1671766554  6.09E-06

  *** SCF run converged in    26 steps ***


  Electronic density on regular grids:         -9.0003980882       -0.0003980882
  Core density on regular grids:                9.0000000000       -0.0000000000
  Total charge density on r-space grids:       -0.0003980882
  Total charge density g-space grids:          -0.0003980882

  Overlap energy of the core charge distribution:               0.00000000000000
  Self energy of the core charge distribution:                -96.60649019442629
  Core Hamiltonian energy:                                     29.76238051148529
  Hartree energy:                                              26.72264374849582
  Exchange-correlation energy:                                 -7.04438508284494
  Dispersion energy:                                           -0.00000859667287
  Electronic entropic energy:                                  -0.00131704147593
  Fermi energy:                                                -0.09138327492079

  Total energy:                                               -47.16717665543890

  outer SCF iter =    1 RMS gradient =   0.26E-06 energy =        -47.1671766554
  outer SCF loop converged in   1 iterations or   26 steps


 *** WARNING in qs_loc_utils.F:1500 :: User requested the calculation of ***
 *** the localized wavefunction but the section LOCALIZE was not         ***
 *** specified. Localization will not be performed!                      ***


 -------------------------------------------------------------------------------
 -                                                                             -
 -  BSSE CALCULATION         FRAGMENT CONF: 11        FRAGMENT SUBCONF: 10     -
 -                           CHARGE =     0           MULTIPLICITY =     1     -
 -                                                                             -
 -                 ATOM INDEX                              ATOM NAME           -
 -                 ----------                              ---------           -
 -                      1                                   C                  -
 -                      2                                   C                  -
 -                      3                                   C                  -
 -                      4                                   C                  -
 -                      5                                   C                  -
 -                      6                                   C                  -
 -                      7                                   C                  -
 -                      8                                   C                  -
 -                      9                                   C                  -
 -                     10                                   C                  -
 -                     11                                   C                  -
 -                     12                                   C                  -
 -                     13                                   C                  -
 -                     14                                   C                  -
 -                     15                                   C                  -
 -                     16                                   C                  -
 -                     17                                   C                  -
 -                     18                                   C                  -
 -                     19                                   C                  -
 -                     20                                   C                  -
 -                     21                                   C                  -
 -                     22                                   C                  -
 -                     23                                   C                  -
 -                     24                                   C                  -
 -                     25                                   C                  -
 -                     26                                   C                  -
 -                     27                                   C                  -
 -                     28                                   C                  -
 -                     29                                   C                  -
 -                     30                                   C                  -
 -                     31                                   C                  -
 -                     32                                   C                  -
 -                     33                                   C                  -
 -                     34                                   C                  -
 -                     35                                   C                  -
 -                     36                                   C                  -
 -                     37                                   C                  -
 -                     38                                   C                  -
 -                     39                                   C                  -
 -                     40                                   C                  -
 -                     41                                   C                  -
 -                     42                                   C                  -
 -                     43                                   C                  -
 -                     44                                   C                  -
 -                     45                                   C                  -
 -                     46                                   C                  -
 -                     47                                   C                  -
 -                     48                                   C                  -
 -                     49                                   C                  -
 -                     50                                   C                  -
 -                     51                                   C                  -
 -                     52                                   C                  -
 -                     53                                   C                  -
 -                     54                                   C                  -
 -                     55                                   C                  -
 -                     56                                   C                  -
 -                     57                                   C                  -
 -                     58                                   C                  -
 -                     59                                   C                  -
 -                     60                                   C                  -
 -                     61                                   C                  -
 -                     62                                   C                  -
 -                     63                                   C                  -
 -                     64                                   C                  -
 -                     65                                   C                  -
 -                     66                                   C                  -
 -                     67                                   C                  -
 -                     68                                   C                  -
 -                     69                                   C                  -
 -                     70                                   C                  -
 -                     71                                   C                  -
 -                     72                                   C                  -
 -                     73                                   C                  -
 -                     74                                   C                  -
 -                     75                                   C                  -
 -                     76                                   C                  -
 -                     77                                   C                  -
 -                     78                                   C                  -
 -                     79                                   C                  -
 -                     80                                   C                  -
 -                     81                                   C                  -
 -                     82                                   C                  -
 -                     83                                   C                  -
 -                     84                                   C                  -
 -                     85                                   C                  -
 -                     86                                   C                  -
 -                     87                                   C                  -
 -                     88                                   C                  -
 -                     89                                   C                  -
 -                     90                                   C                  -
 -                     91                                   C                  -
 -                     92                                   C                  -
 -                     93                                   C                  -
 -                     94                                   C                  -
 -                     95                                   C                  -
 -                     96                                   C                  -
 -                     97                                   C                  -
 -                     98                                   C                  -
 -                     99                                   C                  -
 -                    100                                   C                  -
 -                    101                                   C                  -
 -                    102                                   C                  -
 -                    103                                   C                  -
 -                    104                                   C                  -
 -                    105                                   C                  -
 -                    106                                   C                  -
 -                    107                                   C                  -
 -                    108                                   C                  -
 -                    109                                   C                  -
 -                    110                                   C                  -
 -                    111                                   C                  -
 -                    112                                   C                  -
 -                    113                                   C                  -
 -                    114                                   C                  -
 -                    115                                   C                  -
 -                    116                                   C                  -
 -                    117                                   C                  -
 -                    118                                   C                  -
 -                    119                                   C                  -
 -                    120                                   C                  -
 -                    121                                   C                  -
 -                    122                                   C                  -
 -                    123                                   C                  -
 -                    124                                   C                  -
 -                    125                                   C                  -
 -                    126                                   C                  -
 -                    127                                   C                  -
 -                    128                                   C                  -
 -                    129                                   C                  -
 -                    130                                   C                  -
 -                    131                                   C                  -
 -                    132                                   C                  -
 -                    133                                   C                  -
 -                    134                                   C                  -
 -                    135                                   C                  -
 -                    136                                   C                  -
 -                    137                                   C                  -
 -                    138                                   C                  -
 -                    139                                   C                  -
 -                    140                                   C                  -
 -                    141                                   C                  -
 -                    142                                   C                  -
 -                    143                                   C                  -
 -                    144                                   C                  -
 -                    145                                   C                  -
 -                    146                                   C                  -
 -                    147                                   C                  -
 -                    148                                   C                  -
 -                    149                                   C                  -
 -                    150                                   C                  -
 -                    151                                   C                  -
 -                    152                                   C                  -
 -                    153                                   C                  -
 -                    154                                   C                  -
 -                    155                                   C                  -
 -                    156                                   C                  -
 -                    157                                   C                  -
 -                    158                                   C                  -
 -                    159                                   C                  -
 -                    160                                   C                  -
 -                    161                                   C                  -
 -                    162                                   C                  -
 -                    163                                   C                  -
 -                    164                                   C                  -
 -                    165                                   C                  -
 -                    166                                   C                  -
 -                    167                                   C                  -
 -                    168                                   C                  -
 -                    169                                   C                  -
 -                    170                                   C                  -
 -                    171                                   C                  -
 -                    172                                   C                  -
 -                    173                                   C                  -
 -                    174                                   C                  -
 -                    175                                   C                  -
 -                    176                                   C                  -
 -                    177                                   C                  -
 -                    178                                   C                  -
 -                    179                                   C                  -
 -                    180                                   C                  -
 -                    181                                   C                  -
 -                    182                                   C                  -
 -                    183                                   C                  -
 -                    184                                   C                  -
 -                    185                                   C                  -
 -                    186                                   C                  -
 -                    187                                   C                  -
 -                    188                                   C                  -
 -                    189                                   C                  -
 -                    190                                   C                  -
 -                    191                                   C                  -
 -                    192                                   C                  -
 -                    193                                   Na_ghost           -
 -------------------------------------------------------------------------------

 *******************************************************************************
 *******************************************************************************
 **                                                                           **
 **     #####                         ##              ##                      **
 **    ##   ##            ##          ##              ##                      **
 **   ##     ##                       ##            ######                    **
 **   ##     ##  ##   ##  ##   #####  ##  ##   ####   ##    #####    #####    **
 **   ##     ##  ##   ##  ##  ##      ## ##   ##      ##   ##   ##  ##   ##   **
 **   ##  ## ##  ##   ##  ##  ##      ####     ###    ##   ######   ######    **
 **    ##  ###   ##   ##  ##  ##      ## ##      ##   ##   ##       ##        **
 **     #######   #####   ##   #####  ##  ##  ####    ##    #####   ##        **
 **           ##                                                    ##        **
 **                                                                           **
 **                                                ... make the atoms dance   **
 **                                                                           **
 **            Copyright (C) by CP2K developers group (2000-2022)             **
 **                      J. Chem. Phys. 152, 194103 (2020)                    **
 **                                                                           **
 *******************************************************************************


 TOTAL NUMBERS AND MAXIMUM NUMBERS

  Total number of            - Atomic kinds:                                   2
                             - Atoms:                                        193
                             - Shell sets:                                   193
                             - Shells:                                       965
                             - Primitive Cartesian functions:                967
                             - Cartesian basis functions:                   2697
                             - Spherical basis functions:                   2505

  Maximum angular momentum of- Orbital basis functions:                        2
                             - Local part of the GTH pseudopotential:          2
                             - Non-local part of the GTH pseudopotential:      0


 SCF PARAMETERS         Density guess:                                    ATOMIC
                        --------------------------------------------------------
                        max_scf:                                             300
                        max_scf_history:                                       0
                        max_diis:                                              4
                        --------------------------------------------------------
                        eps_scf:                                        3.00E-07
                        eps_scf_history:                                0.00E+00
                        eps_diis:                                       1.00E-01
                        eps_eigval:                                     1.00E-05
                        --------------------------------------------------------
                        level_shift [a.u.]:                             0.000000
                        added MOs                                       100    0
                        --------------------------------------------------------
                        Mixing method:                            BROYDEN_MIXING
                                                charge density mixing in g-space
                        --------------------------------------------------------
                        Smear method:                                FERMI_DIRAC
                        Electronic temperature [K]:                        300.0
                        Electronic temperature [a.u.]:                  9.50E-04
                        Accuracy threshold:                             1.00E-10
                        --------------------------------------------------------
                        Outer loop SCF in use 
                        No variables optimised in outer loop
                        eps_scf                                         1.00E-06
                        max_scf                                              300
                        DIIS optimization
                        DIIS buffer length                                     3
                        step_size                                       5.00E-01

 Number of electrons:                                                        768
 Number of occupied orbitals:                                                384
 Number of molecular orbitals:                                               484

 Number of orbital functions:                                               2505
 Number of independent orbital functions:                                   2505

 Extrapolation method: initial_guess


 SCF WAVEFUNCTION OPTIMIZATION

  Step     Update method      Time    Convergence         Total energy    Change
  ------------------------------------------------------------------------------
     1 NoMix/Diag. 0.10E+00    3.6     0.92601545     -1085.8946863414 -1.09E+03
     2 Broy./Diag. 0.10E+00    4.8     0.00233455     -1044.3845989384  4.15E+01
     3 Broy./Diag. 0.10E+00    4.8     0.02594781     -1076.4902521051 -3.21E+01
     4 Broy./Diag. 0.10E+00    4.9     0.00034358     -1090.1685419574 -1.37E+01
     5 Broy./Diag. 0.10E+00    4.9     0.00234541     -1090.7535439929 -5.85E-01
     6 Broy./Diag. 0.10E+00    4.9     0.00009863     -1091.9286380421 -1.18E+00
     7 Broy./Diag. 0.10E+00    5.0     0.00082591     -1092.4504879190 -5.22E-01
     8 Broy./Diag. 0.10E+00    5.0     0.00004724     -1092.8166164650 -3.66E-01
     9 Broy./Diag. 0.10E+00    5.1     0.00066192     -1092.9907657972 -1.74E-01
    10 Broy./Diag. 0.10E+00    5.1     0.00005015     -1093.2116083581 -2.21E-01
    11 Broy./Diag. 0.10E+00    5.1     0.00064732     -1093.1688253005  4.28E-02
    12 Broy./Diag. 0.10E+00    5.1     0.00002812     -1093.2480661838 -7.92E-02
    13 Broy./Diag. 0.10E+00    5.1     0.00047694     -1093.2840417728 -3.60E-02
    14 Broy./Diag. 0.10E+00    5.1     0.00005126     -1093.3234755107 -3.94E-02
    15 Broy./Diag. 0.10E+00    5.1     0.00034091     -1093.3599809737 -3.65E-02
    16 Broy./Diag. 0.10E+00    5.1     0.00004760     -1093.3779522808 -1.80E-02
    17 Broy./Diag. 0.10E+00    5.1     0.00006726     -1093.3571838439  2.08E-02
    18 Broy./Diag. 0.10E+00    5.1     0.00001337     -1093.3472183236  9.97E-03
    19 Broy./Diag. 0.10E+00    5.1     0.00002979     -1093.3455051751  1.71E-03
    20 Broy./Diag. 0.10E+00    5.1     0.00000642     -1093.3495463058 -4.04E-03
    21 Broy./Diag. 0.10E+00    5.1     0.00001492     -1093.3511188543 -1.57E-03
    22 Broy./Diag. 0.10E+00    5.1     0.00001042     -1093.3549047074 -3.79E-03
    23 Broy./Diag. 0.10E+00    5.1     0.00000493     -1093.3586142702 -3.71E-03
    24 Broy./Diag. 0.10E+00    5.1     0.00004256     -1093.3580934997  5.21E-04
    25 Broy./Diag. 0.10E+00    5.1     0.00000795     -1093.3597970187 -1.70E-03
    26 Broy./Diag. 0.10E+00    5.1     0.00003271     -1093.3606303632 -8.33E-04
    27 Broy./Diag. 0.10E+00    5.1     0.00000825     -1093.3629244293 -2.29E-03
    28 Broy./Diag. 0.10E+00    5.1     0.00001132     -1093.3658484001 -2.92E-03
    29 Broy./Diag. 0.10E+00    5.1     0.00000357     -1093.3672759317 -1.43E-03
    30 Broy./Diag. 0.10E+00    5.1     0.00000436     -1093.3672102662  6.57E-05
    31 Broy./Diag. 0.10E+00    5.1     0.00000915     -1093.3670364013  1.74E-04
    32 Broy./Diag. 0.10E+00    5.1     0.00000169     -1093.3681187195 -1.08E-03
    33 Broy./Diag. 0.10E+00    5.1     0.00000460     -1093.3675445990  5.74E-04
    34 Broy./Diag. 0.10E+00    5.1     0.00000210     -1093.3678984336 -3.54E-04
    35 Broy./Diag. 0.10E+00    5.1     0.00000581     -1093.3693531311 -1.45E-03
    36 Broy./Diag. 0.10E+00    5.1     0.00000456     -1093.3699554567 -6.02E-04
    37 Broy./Diag. 0.10E+00    5.1     0.00001014     -1093.3698913201  6.41E-05
    38 Broy./Diag. 0.10E+00    5.1     0.00000270     -1093.3695793273  3.12E-04
    39 Broy./Diag. 0.10E+00    5.1     0.00000307     -1093.3694581606  1.21E-04
    40 Broy./Diag. 0.10E+00    5.1     0.00000556     -1093.3701999300 -7.42E-04
    41 Broy./Diag. 0.10E+00    5.1     0.00000122     -1093.3710520724 -8.52E-04
    42 Broy./Diag. 0.10E+00    5.1     0.00000172     -1093.3713858263 -3.34E-04
    43 Broy./Diag. 0.10E+00    5.1     0.00000109     -1093.3715375657 -1.52E-04
    44 Broy./Diag. 0.10E+00    5.1     0.00000119     -1093.3715889393 -5.14E-05
    45 Broy./Diag. 0.10E+00    5.1     0.00000139     -1093.3714222253  1.67E-04
    46 Broy./Diag. 0.10E+00    5.1     0.00000098     -1093.3713617925  6.04E-05
    47 Broy./Diag. 0.10E+00    5.1     0.00000283     -1093.3714248037 -6.30E-05
    48 Broy./Diag. 0.10E+00    5.1     0.00000096     -1093.3715940997 -1.69E-04
    49 Broy./Diag. 0.10E+00    5.1     0.00000207     -1093.3717421942 -1.48E-04
    50 Broy./Diag. 0.10E+00    5.1     0.00000066     -1093.3717212833  2.09E-05
    51 Broy./Diag. 0.10E+00    5.1     0.00000034     -1093.3716574133  6.39E-05
    52 Broy./Diag. 0.10E+00    5.1     0.00000076     -1093.3716457508  1.17E-05
    53 Broy./Diag. 0.10E+00    5.1     0.00000023     -1093.3716941325 -4.84E-05

  *** SCF run converged in    53 steps ***


  Electronic density on regular grids:       -767.9999999984        0.0000000016
  Core density on regular grids:              767.9999999993       -0.0000000007
  Total charge density on r-space grids:        0.0000000009
  Total charge density g-space grids:           0.0000000009

  Overlap energy of the core charge distribution:               0.00003001097685
  Self energy of the core charge distribution:              -2560.32152193892080
  Core Hamiltonian energy:                                    801.02686397571756
  Hartree energy:                                            1001.35872304983718
  Exchange-correlation energy:                               -335.18931098406040
  Dispersion energy:                                           -0.24647807669622
  Electronic entropic energy:                                  -0.00000016935903
  Fermi energy:                                                -0.10923272806681

  Total energy:                                             -1093.37169413250444

  outer SCF iter =    1 RMS gradient =   0.23E-06 energy =      -1093.3716941325
  outer SCF loop converged in   1 iterations or   53 steps


 *** WARNING in qs_loc_utils.F:1500 :: User requested the calculation of ***
 *** the localized wavefunction but the section LOCALIZE was not         ***
 *** specified. Localization will not be performed!                      ***


 -------------------------------------------------------------------------------
 -                                                                             -
 -  BSSE CALCULATION         FRAGMENT CONF: 11        FRAGMENT SUBCONF: 01     -
 -                           CHARGE =     1           MULTIPLICITY =     1     -
 -                                                                             -
 -                 ATOM INDEX                              ATOM NAME           -
 -                 ----------                              ---------           -
 -                      1                                   C_ghost            -
 -                      2                                   C_ghost            -
 -                      3                                   C_ghost            -
 -                      4                                   C_ghost            -
 -                      5                                   C_ghost            -
 -                      6                                   C_ghost            -
 -                      7                                   C_ghost            -
 -                      8                                   C_ghost            -
 -                      9                                   C_ghost            -
 -                     10                                   C_ghost            -
 -                     11                                   C_ghost            -
 -                     12                                   C_ghost            -
 -                     13                                   C_ghost            -
 -                     14                                   C_ghost            -
 -                     15                                   C_ghost            -
 -                     16                                   C_ghost            -
 -                     17                                   C_ghost            -
 -                     18                                   C_ghost            -
 -                     19                                   C_ghost            -
 -                     20                                   C_ghost            -
 -                     21                                   C_ghost            -
 -                     22                                   C_ghost            -
 -                     23                                   C_ghost            -
 -                     24                                   C_ghost            -
 -                     25                                   C_ghost            -
 -                     26                                   C_ghost            -
 -                     27                                   C_ghost            -
 -                     28                                   C_ghost            -
 -                     29                                   C_ghost            -
 -                     30                                   C_ghost            -
 -                     31                                   C_ghost            -
 -                     32                                   C_ghost            -
 -                     33                                   C_ghost            -
 -                     34                                   C_ghost            -
 -                     35                                   C_ghost            -
 -                     36                                   C_ghost            -
 -                     37                                   C_ghost            -
 -                     38                                   C_ghost            -
 -                     39                                   C_ghost            -
 -                     40                                   C_ghost            -
 -                     41                                   C_ghost            -
 -                     42                                   C_ghost            -
 -                     43                                   C_ghost            -
 -                     44                                   C_ghost            -
 -                     45                                   C_ghost            -
 -                     46                                   C_ghost            -
 -                     47                                   C_ghost            -
 -                     48                                   C_ghost            -
 -                     49                                   C_ghost            -
 -                     50                                   C_ghost            -
 -                     51                                   C_ghost            -
 -                     52                                   C_ghost            -
 -                     53                                   C_ghost            -
 -                     54                                   C_ghost            -
 -                     55                                   C_ghost            -
 -                     56                                   C_ghost            -
 -                     57                                   C_ghost            -
 -                     58                                   C_ghost            -
 -                     59                                   C_ghost            -
 -                     60                                   C_ghost            -
 -                     61                                   C_ghost            -
[...]
    36 Broy./Diag. 0.10E+00    5.1     0.00000325     -1140.4789348285 -4.02E-04
    37 Broy./Diag. 0.10E+00    5.2     0.00001004     -1140.4793915688 -4.57E-04
    38 Broy./Diag. 0.10E+00    5.1     0.00000161     -1140.4795507289 -1.59E-04
    39 Broy./Diag. 0.10E+00    5.1     0.00000628     -1140.4794207473  1.30E-04
    40 Broy./Diag. 0.10E+00    5.1     0.00000105     -1140.4793297081  9.10E-05
    41 Broy./Diag. 0.10E+00    5.1     0.00000381     -1140.4793139808  1.57E-05
    42 Broy./Diag. 0.10E+00    5.1     0.00000032     -1140.4793242952 -1.03E-05
    43 Broy./Diag. 0.10E+00    5.1     0.00000166     -1140.4793877016 -6.34E-05
    44 Broy./Diag. 0.10E+00    5.1     0.00000019     -1140.4794091815 -2.15E-05

  *** SCF run converged in    44 steps ***


  Electronic density on regular grids:       -776.0004003372       -0.0004003372
  Core density on regular grids:              776.9999999993       -0.0000000007
  Total charge density on r-space grids:        0.9995996622
  Total charge density g-space grids:           0.9995996622

  Overlap energy of the core charge distribution:               0.00003001097685
  Self energy of the core charge distribution:              -2656.92801213334678
  Core Hamiltonian energy:                                    830.63983432896225
  Hartree energy:                                            1028.14935712951774
  Exchange-correlation energy:                               -342.09100115235697
  Dispersion energy:                                           -0.24961717150306
  Electronic entropic energy:                                  -0.00000019377309
  Fermi energy:                                                -0.12147694488713

  Total energy:                                             -1140.47940918152312

  outer SCF iter =    1 RMS gradient =   0.19E-06 energy =      -1140.4794091815
  outer SCF loop converged in   1 iterations or   44 steps


 *** WARNING in qs_loc_utils.F:1500 :: User requested the calculation of ***
 *** the localized wavefunction but the section LOCALIZE was not         ***
 *** specified. Localization will not be performed!                      ***


 -------------------------------------------------------------------------------
 -                                                                             -
 -                                 BSSE RESULTS                                -
 -                                                                             -
 -                 CP-corrected Total energy:    -1140.641933                  -
 -                                                                             -
 -                       1-body contribution:    -1093.370554                  -
 -                       1-body contribution:      -47.167177                  -
 -                                                                             -
 -                       2-body contribution:       -0.104203                  -
 -                 BSSE-free interaction energy:       -0.104203               -
 -------------------------------------------------------------------------------

 -------------------------------------------------------------------------------
 -                                                                             -
 -                                DBCSR STATISTICS                             -
 -                                                                             -
 -------------------------------------------------------------------------------
 COUNTER                                    TOTAL       BLAS       SMM       ACC
 flops     9 x     9 x     9                37908     100.0%      0.0%      0.0%
 flops     9 x     9 x     8                71280     100.0%      0.0%      0.0%
 flops     9 x     9 x   104               741312     100.0%      0.0%      0.0%
 flops     9 x     9 x    32               855360     100.0%      0.0%      0.0%
 flops     9 x     9 x   100               858600     100.0%      0.0%      0.0%
 flops     9 x     9 x   128              6034176     100.0%      0.0%      0.0%
 flops    13 x     9 x     8              7001280     100.0%      0.0%      0.0%
 flops     9 x    13 x     8              7619040     100.0%      0.0%      0.0%
 flops    13 x     9 x   104             72813312     100.0%      0.0%      0.0%
 flops     9 x    13 x   104             79238016     100.0%      0.0%      0.0%
 flops    13 x     9 x    32             84015360     100.0%      0.0%      0.0%
 flops    13 x     9 x   100             84333600     100.0%      0.0%      0.0%
 flops     9 x    13 x    32             91428480     100.0%      0.0%      0.0%
 flops     9 x    13 x   100             91774800     100.0%      0.0%      0.0%
 flops    13 x     9 x   128            592690176     100.0%      0.0%      0.0%
 flops     9 x    13 x   128            644986368     100.0%      0.0%      0.0%
 flops    13 x    13 x     8           1708792800     100.0%      0.0%      0.0%
 flops    13 x    13 x   104          17771445120     100.0%      0.0%      0.0%
 flops    13 x    13 x    32          20505513600     100.0%      0.0%      0.0%
 flops    13 x    13 x   100          40389648000     100.0%      0.0%      0.0%
 flops    13 x    13 x   128         220713891840     100.0%      0.0%      0.0%
 flops inhomo. stacks                           0       0.0%      0.0%      0.0%
 flops total                       302.853790E+09     100.0%      0.0%      0.0%
 flops max/rank                     19.715511E+09     100.0%      0.0%      0.0%
 matmuls inhomo. stacks                         0       0.0%      0.0%      0.0%
 matmuls total                            9416850     100.0%      0.0%      0.0%
 number of processed stacks                 17882     100.0%      0.0%      0.0%
 average stack size                                   526.6       0.0       0.0
 marketing flops                   723.861832E+09
 -------------------------------------------------------------------------------
 # multiplications                            229
 max memory usage/rank             871.923712E+06
 # max total images/rank                        1
 # max 3D layers                                1
 # MPI messages exchanged                   21984
 MPI messages size (bytes):
  total size                         9.311404E+09
  min size                           0.000000E+00
  max size                         648.192000E+03
  average size                     423.553688E+03
 MPI breakdown and total messages size (bytes):
             size <=      128                2340                        0
       128 < size <=     8192                 156                   101088
      8192 < size <=    32768                   0                        0
     32768 < size <=   131072                1320                 52905600
    131072 < size <=  4194304               18168               9258397632
   4194304 < size <= 16777216                   0                        0
  16777216 < size                               0                        0
 -------------------------------------------------------------------------------
 -                                                                             -
 -                      DBCSR MESSAGE PASSING PERFORMANCE                      -
 -                                                                             -
 -------------------------------------------------------------------------------
 ROUTINE             CALLS      AVE VOLUME [Bytes]
 MP_Bcast               22                     12.
 MP_Allreduce         1669                      9.
 MP_Alltoall          6472                 478925.
 MP_ISend             3664                 171858.
 MP_IRecv             3664                 157288.
 -------------------------------------------------------------------------------

 -------------------------------------------------------------------------------
 -                                                                             -
 -                                DBM STATISTICS                               -
 -                                                                             -
 -------------------------------------------------------------------------------
    M  x    N  x    K                                          COUNT     PERCENT
 -------------------------------------------------------------------------------

 -------------------------------------------------------------------------------
 -                                                                             -
 -                                GRID STATISTICS                              -
 -                                                                             -
 -------------------------------------------------------------------------------
 LP    KERNEL             BACKEND                              COUNT     PERCENT
 4     collocate ortho    REF                               23872275      50.01%
 4     integrate ortho    REF                               23410975      49.05%
 3     collocate ortho    REF                                 212970       0.45%
 3     integrate ortho    REF                                 208848       0.44%
 2     collocate ortho    REF                                   9282       0.02%
 0     collocate general  REF                                   9264       0.02%
 2     integrate ortho    REF                                   9078       0.02%
 -------------------------------------------------------------------------------

 MEMORY| Estimated peak process memory [MiB]                                 832

 -------------------------------------------------------------------------------
 -                                                                             -
 -                         MESSAGE PASSING PERFORMANCE                         -
 -                                                                             -
 -------------------------------------------------------------------------------

 ROUTINE             CALLS      AVE VOLUME [Bytes]
 MP_Group               24
 MP_Bcast              611                1581230.
 MP_Allreduce         3196                   1519.
 MP_Sync               279
 MP_Alltoall          3077               23489478.
 MP_SendRecv          9768                 213422.
 MP_ISendRecv         6870                 161680.
 MP_Wait             17111
 MP_comm_split          26
 MP_ISend             7448                1392711.
 MP_IRecv             7448                1392690.
 MP_Recv               148                 615942.
 -------------------------------------------------------------------------------


 -------------------------------------------------------------------------------
 -                                                                             -
 -                           R E F E R E N C E S                               -
 -                                                                             -
 -------------------------------------------------------------------------------
 
 CP2K version 2023.1, the CP2K developers group (2023).
 CP2K is freely available from https://www.cp2k.org/ .

 Kuehne,Thomas D.; Iannuzzi,Marcella; Del Ben,Mauro;
 Rybkin,Vladimir V.; Seewald,Patrick; Stein,Frederick; Laino,Teodoro;
 Khaliullin,Rustam Z.; Schuett,Ole; Schiffmann,Florian; Golze,Dorothea;
 Wilhelm,Jan; Chulkov,Sergey; Bani-Hashemian,Mohammad Hossein;
 Weber,Valery; Borstnik,Urban; Taillefumier,Mathieu;
 Jakobovits,Alice Shoshana; Lazzaro,Alfio; Pabst,Hans; Mueller,Tiziano;
 Schade,Robert; Guidon,Manuel; Andermatt,Samuel; Holmberg,Nico;
 Schenter,Gregory K.; Hehn,Anna; Bussy,Augustin; Belleflamme,Fabian;
 Tabacchi,Gloria; Gloess,Andreas; Lass,Michael; Bethune,Iain;
 Mundy,Christopher J.; Plessl,Christian; Watkins,Matt;
 VandeVondele,Joost; Krack,Matthias; Hutter,Juerg. 
 The Journal of Chemical Physics, 152 (19), (2020). 
 CP2K: An electronic structure and molecular dynamics software package -
 Quickstep: Efficient and accurate electronic structure calculations.
 https://doi.org/10.1063/5.0007045

 Goerigk, Lars; Hansen, Andreas; Bauer, Christoph; Ehrlich, Stephan;
 Najibi, Asim; Grimme, Stefan. , 19 (48), (2017). 
 A look at the density functional theory zoo with the advanced GMTKN55 database
 for general main group thermochemistry, kinetics and noncovalent interactions.
 https://doi.org/10.1039/C7CP04913G

 Schuett, Ole; Messmer, Peter; Hutter, Juerg; VandeVondele, Joost. 
 Electronic Structure Calculations on Graphics Processing Units, John
 Wiley & Sons, Ltd, 173-190 (2016). 
 GPU-Accelerated Sparse Matrix-Matrix Multiplication for
 Linear Scaling Density Functional Theory.
 https://doi.org/10.1002/9781118670712.ch8

 Borstnik, U; VandeVondele, J; Weber, V; Hutter, J. 
 PARALLEL COMPUTING, 40 (5-6), 47-58 (2014). 
 Sparse matrix multiplication: The distributed block-compressed sparse
 row library.
 https://doi.org/10.1016/j.parco.2014.03.012

 Hutter, J; Iannuzzi, M; Schiffmann, F; VandeVondele, J. 
 WIREs Comput Mol Sci., 4 (1), 15-25 (2014). 
 CP2K: atomistic simulations of condensed matter systems.
 https://doi.org/10.1002/wcms.1159

 Marek, A; Blum, V; Johanni, R; Havu, V; Lang, B; Auckenthaler, T;
 Heinecke, A; Bungartz, H; Lederer, H. 
 Journal of Physics: Condensed Matter, 26 (21), (2014). 
 The ELPA library: scalable parallel eigenvalue solutions for
 electronic structure
 theory and computational science.
 https://doi.org/10.1088/0953-8984/26/21/213201

 Grimme, S; Ehrlich, S; Goerigk, L. 
 JOURNAL OF COMPUTATIONAL CHEMISTRY, 32, 1456 (2011). 
 Effect of the damping function in dispersion corrected density functional theory.
 https://doi.org/10.1002/jcc.21759

 Grimme, S; Antony, J; Ehrlich, S; Krieg, H. 
 JOURNAL OF CHEMICAL PHYSICS, 132 (15), 154104 (2010). 
 A consistent and accurate ab initio parametrization of density
 functional dispersion correction (DFT-D) for the 94 elements H-Pu.
 https://doi.org/10.1063/1.3382344

 VandeVondele, J; Hutter, J. 
 JOURNAL OF CHEMICAL PHYSICS, 127 (11), 114105 (2007). 
 Gaussian basis sets for accurate calculations on molecular systems in
 gas and condensed phases.
 https://doi.org/10.1063/1.2770708

 Krack, M. 
 THEORETICAL CHEMISTRY ACCOUNTS, 114 (1-3), 145-152 (2005). 
 Pseudopotentials for H to Kr optimized for gradient-corrected
 exchange-correlation functionals.
 https://doi.org/10.1007/s00214-005-0655-y

 VandeVondele, J; Krack, M; Mohamed, F; Parrinello, M; Chassaing, T;
 Hutter, J. COMPUTER PHYSICS COMMUNICATIONS, 167 (2), 103-128 (2005). 
 QUICKSTEP: Fast and accurate density functional calculations using a
 mixed Gaussian and plane waves approach.
 https://doi.org/10.1016/j.cpc.2004.12.014

 Frigo, M; Johnson, SG. 
 PROCEEDINGS OF THE IEEE, 93 (2), 216-231 (2005). 
 The design and implementation of FFTW3.
 https://doi.org/10.1109/JPROC.2004.840301

 Hartwigsen, C; Goedecker, S; Hutter, J. 
 PHYSICAL REVIEW B, 58 (7), 3641-3662 (1998). 
 Relativistic separable dual-space Gaussian pseudopotentials from H to Rn.
 https://doi.org/10.1103/PhysRevB.58.3641

 Lippert, G; Hutter, J; Parrinello, M. 
 MOLECULAR PHYSICS, 92 (3), 477-487 (1997). 
 A hybrid Gaussian and plane wave density functional scheme.
 https://doi.org/10.1080/002689797170220

 Perdew, JP; Burke, K; Ernzerhof, M. 
 PHYSICAL REVIEW LETTERS, 77 (18), 3865-3868 (1996). 
 Generalized gradient approximation made simple.
 https://doi.org/10.1103/PhysRevLett.77.3865

 Goedecker, S; Teter, M; Hutter, J. 
 PHYSICAL REVIEW B, 54 (3), 1703-1710 (1996). 
 Separable dual-space Gaussian pseudopotentials.
 https://doi.org/10.1103/PhysRevB.54.1703


 -------------------------------------------------------------------------------
 -                                                                             -
 -                                T I M I N G                                  -
 -                                                                             -
 -------------------------------------------------------------------------------
 SUBROUTINE                       CALLS  ASD         SELF TIME        TOTAL TIME
                                MAXIMUM       AVERAGE  MAXIMUM  AVERAGE  MAXIMUM
 CP2K                                 1  1.0    0.020    0.055 1062.063 1062.071
 qs_energies                          5  2.0    0.000    0.000 1059.976 1060.279
 scf_env_do_scf                       5  3.0    0.001    0.003 1052.358 1052.661
 scf_env_do_scf_inner_loop          229  4.0    0.008    0.033 1052.357 1052.658
 qs_scf_new_mos                     229  5.0    0.003    0.004  438.434  438.677
 eigensolver                        229  6.0    0.014    0.018  428.211  428.320
 qs_ks_update_qs_env                229  5.0    0.001    0.002  293.113  293.178
 rebuild_ks_matrix                  229  6.0    0.001    0.001  292.873  292.938
 qs_ks_build_kohn_sham_matrix       229  7.0    0.034    0.038  292.872  292.938
 cp_fm_diag_elpa                    203  7.0    0.001    0.002  258.668  258.721
 cp_fm_diag_elpa_base               203  8.0  256.953  257.440  258.594  258.594
 qs_rho_update_rho_low              234  5.0    0.001    0.001  213.460  213.517
 calculate_rho_elec                 234  6.0    0.829    0.870  213.458  213.515
 sum_up_and_integrate               229  8.0    2.270    2.290  188.971  189.034
 integrate_v_rspace                 229  9.0    0.006    0.007  186.700  186.789
 density_rs2pw                      234  7.0    0.019    0.021  137.959  181.797
 pw_transfer                       3002  8.9    0.232    0.269  168.292  169.225
 cp_fm_triangular_multiply          687  7.0  168.026  168.508  168.026  168.508
 fft_wrap_pw1pw2                   2544  9.9    0.033    0.038  163.608  164.522
 fft_wrap_pw1pw2_150               1155 10.2   15.731   16.020  152.369  153.626
 grid_integrate_task_list           229 10.0   73.726  135.829   73.726  135.829
 grid_collocate_task_list           234  7.0   73.239  130.265   73.239  130.265
 rs_pw_transfer                    1857  9.5    0.029    0.034   80.377  124.144
 fft3d_ps                          2544 11.9   66.383   67.066  119.936  121.062
 gspace_mixing                      224  5.0    0.800    0.833  111.042  111.042
 mp_alltoall_d11v                  3241  9.3   63.752  110.056   63.752  110.056
 rs_gather_matrices                 229 10.0    0.167    0.198   62.389  108.663
 mp_waitany                        7448 11.5   62.298  106.410   62.298  106.410
 rs_pw_transfer_RS2PW_150           239  9.0    3.400    4.468   60.604  105.970
 broyden_mixing                     224  6.0   79.393   79.685   80.130   80.316
 qs_vxc_create                      229  8.0    0.009    0.010   57.137   57.555
 xc_vxc_pw_create                   229  9.0    2.810    3.300   57.128   57.546
 potential_pw2rs                    229 10.0    0.118    0.128   50.579   50.631
 xc_rho_set_and_dset_create         229 10.0    3.307    3.856   41.317   43.547
 x_to_yz                           1374 13.2   26.581   27.158   34.270   35.127
 xc_functional_eval                 229 11.0    0.004    0.004   25.645   27.412
 pbe_lda_eval                       229 12.0   25.642   27.408   25.642   27.408
 -------------------------------------------------------------------------------

 The number of warnings for this run is : 6
 
 -------------------------------------------------------------------------------
  **** **** ******  **  PROGRAM ENDED AT                 2025-07-15 14:59:04.005
 ***** ** ***  *** **   PROGRAM RAN ON                                sebnode121
 **    ****   ******    PROGRAM RAN BY                                    luehrs
 ***** **    ** ** **   PROGRAM PROCESS ID                                642689
  **** **  *******  **  PROGRAM STOPPED IN /home/luehrs/PhD/Sodium_batteries/Sod
                                           ium-graphene-curvature/Sinus_surface/
                                           Sinus_3
