 DBCSR| CPU Multiplication driver                                           BLAS (U)
 DBCSR| Multrec recursion limit                                              512 (U)
 DBCSR| Multiplication stack size                                           1000 (D)
 DBCSR| Maximum elements for images                                    UNLIMITED (U)
 DBCSR| Multiplicative factor virtual images                                   1 (U)
 DBCSR| Use multiplication densification                                       T (D)
 DBCSR| Multiplication size stacks                                             3 (U)
 DBCSR| Use memory pool for CPU allocation                                     F (U)
 DBCSR| Number of 3D layers                                               SINGLE (U)
 DBCSR| Use MPI memory allocation                                              F (U)
 DBCSR| Use RMA algorithm                                                      F (U)
 DBCSR| Use Communication thread                                               T (U)
 DBCSR| Communication thread load                                             87 (D)
 DBCSR| MPI: My process id                                                     0
 DBCSR| MPI: Number of processes                                              16
 DBCSR| OMP: Current number of threads                                         1
 DBCSR| OMP: Max number of threads                                             1
 DBCSR| Split modifier for TAS multiplication algorithm                  1.0E+00 (U)


  **** **** ******  **  PROGRAM STARTED AT               2025-06-03 16:28:51.968
 ***** ** ***  *** **   PROGRAM STARTED ON                            sebnode133
 **    ****   ******    PROGRAM STARTED BY                                luehrs
 ***** **    ** ** **   PROGRAM PROCESS ID                               1748388
  **** **  *******  **  PROGRAM STARTED IN /home/luehrs/PhD/Sodium_batteries/Sod
                                           ium-graphene-interlayer/AA_Interlayer
                                           /Zig_Zag_2

 CP2K| version string:                                       CP2K version 2023.1
 CP2K| source code revision number:                                  git:b888bd8
 CP2K| cp2kflags: omp libint fftw3 libxc elpa parallel scalapack spglib         
 CP2K| is freely available from                            https://www.cp2k.org/
 CP2K| Program compiled at                          Tue Jan 10 19:52:03 UTC 2023
 CP2K| Program compiled on                                            x86-ubc-01
 CP2K| Program compiled for                                Linux-x86_64-gfortran
 CP2K| Data directory path                                       /usr/share/cp2k
 CP2K| Input file name                                         input.zig-zag.inp

 GLOBAL| Force Environment number                                              1
 GLOBAL| Basis set file name                                      ./BASIS_MOLOPT
 GLOBAL| Potential file name                                    ./GTH_POTENTIALS
 GLOBAL| MM Potential file name                                     MM_POTENTIAL
 GLOBAL| Coordinate file name           graphene_no_hydrogen_zig-zag_3.7_relaxed
 GLOBAL| Method name                                                        CP2K
 GLOBAL| Project name                           graphene_zig_zag_sodium_BSSE_PBE
 GLOBAL| Run type                                                           BSSE
 GLOBAL| FFT library                                                       FFTW3
 GLOBAL| Diagonalization library                                            ELPA
 GLOBAL| DGEMM library                                                      BLAS
 GLOBAL| Minimum number of eigenvectors for ELPA usage                        16
 GLOBAL| Orthonormality check for eigenvectors                          DISABLED
 GLOBAL| Matrix multiplication library                                 ScaLAPACK
 GLOBAL| All-to-all communication in single precision                          F
 GLOBAL| FFTs using library dependent lengths                                  F
 GLOBAL| Grid backend                                                       AUTO
 GLOBAL| Global print level                                                  LOW
 GLOBAL| MPI I/O enabled                                                       T
 GLOBAL| Total number of message passing processes                            16
 GLOBAL| Number of threads for this process                                    1
 GLOBAL| This output is from process                                           0
 GLOBAL| Stack size for threads created by OpenMP (OMP_STACKSIZE)        default
 GLOBAL| CPU model name                          AMD EPYC 7513 32-Core Processor

 MEMORY| system memory details [Kb]
 MEMORY|                        rank 0           min           max       average
 MEMORY| MemTotal            131828104     131828104     131828104     131828104
 MEMORY| MemFree              54043860      54043356      54043860      54043734
 MEMORY| Buffers                166916        166916        166916        166916
 MEMORY| Cached                1409512       1409508       1409512       1409510
 MEMORY| Slab                   847176        847176        847176        847176
 MEMORY| SReclaimable           196736        196736        196736        196736
 MEMORY| MemLikelyFree        55817024      55816520      55817024      55816896


 GENERATE|  Preliminary Number of Bonds generated:                             0
 GENERATE|  Achieved consistency in connectivity generation.

 *******************************************************************************
 *******************************************************************************
 **                                                                           **
 **     #####                         ##              ##                      **
 **    ##   ##            ##          ##              ##                      **
 **   ##     ##                       ##            ######                    **
 **   ##     ##  ##   ##  ##   #####  ##  ##   ####   ##    #####    #####    **
 **   ##     ##  ##   ##  ##  ##      ## ##   ##      ##   ##   ##  ##   ##   **
 **   ##  ## ##  ##   ##  ##  ##      ####     ###    ##   ######   ######    **
 **    ##  ###   ##   ##  ##  ##      ## ##      ##   ##   ##       ##        **
 **     #######   #####   ##   #####  ##  ##  ####    ##    #####   ##        **
 **           ##                                                    ##        **
 **                                                                           **
 **                                                ... make the atoms dance   **
 **                                                                           **
 **            Copyright (C) by CP2K developers group (2000-2022)             **
 **                      J. Chem. Phys. 152, 194103 (2020)                    **
 **                                                                           **
 *******************************************************************************


 TOTAL NUMBERS AND MAXIMUM NUMBERS

  Total number of            - Atomic kinds:                                   2
                             - Atoms:                                        225
                             - Shell sets:                                   225
                             - Shells:                                      1125
                             - Primitive Cartesian functions:               1127
                             - Cartesian basis functions:                   3145
                             - Spherical basis functions:                   2921

  Maximum angular momentum of- Orbital basis functions:                        2
                             - Local part of the GTH pseudopotential:          2
                             - Non-local part of the GTH pseudopotential:      1


 SCF PARAMETERS         Density guess:                                    ATOMIC
                        --------------------------------------------------------
                        max_scf:                                             100
                        max_scf_history:                                       0
                        max_diis:                                              4
                        --------------------------------------------------------
                        eps_scf:                                        3.00E-07
                        eps_scf_history:                                0.00E+00
                        eps_diis:                                       1.00E-01
                        eps_eigval:                                     1.00E-05
                        --------------------------------------------------------
                        level_shift [a.u.]:                             0.000000
                        added MOs                                       100  100
                        --------------------------------------------------------
                        Mixing method:                            BROYDEN_MIXING
                                                charge density mixing in g-space
                        --------------------------------------------------------
                        Smear method:                                FERMI_DIRAC
                        Electronic temperature [K]:                        300.0
                        Electronic temperature [a.u.]:                  9.50E-04
                        Accuracy threshold:                             1.00E-10
                        --------------------------------------------------------
                        Outer loop SCF in use 
                        No variables optimised in outer loop
                        eps_scf                                         1.00E-06
                        max_scf                                               30
                        DIIS optimization
                        DIIS buffer length                                     3
                        step_size                                       5.00E-01

 -------------------------------------------------------------------------------
 -                                                                             -
 -  BSSE CALCULATION         FRAGMENT CONF: 10        FRAGMENT SUBCONF: 10     -
 -                           CHARGE =     0           MULTIPLICITY =     0     -
 -                                                                             -
 -                 ATOM INDEX                              ATOM NAME           -
 -                 ----------                              ---------           -
 -                      1                                   C                  -
 -                      2                                   C                  -
 -                      3                                   C                  -
 -                      4                                   C                  -
 -                      5                                   C                  -
 -                      6                                   C                  -
 -                      7                                   C                  -
 -                      8                                   C                  -
 -                      9                                   C                  -
 -                     10                                   C                  -
 -                     11                                   C                  -
 -                     12                                   C                  -
 -                     13                                   C                  -
 -                     14                                   C                  -
 -                     15                                   C                  -
 -                     16                                   C                  -
 -                     17                                   C                  -
 -                     18                                   C                  -
 -                     19                                   C                  -
 -                     20                                   C                  -
 -                     21                                   C                  -
 -                     22                                   C                  -
 -                     23                                   C                  -
 -                     24                                   C                  -
 -                     25                                   C                  -
 -                     26                                   C                  -
 -                     27                                   C                  -
 -                     28                                   C                  -
 -                     29                                   C                  -
 -                     30                                   C                  -
 -                     31                                   C                  -
 -                     32                                   C                  -
 -                     33                                   C                  -
 -                     34                                   C                  -
 -                     35                                   C                  -
 -                     36                                   C                  -
 -                     37                                   C                  -
 -                     38                                   C                  -
 -                     39                                   C                  -
 -                     40                                   C                  -
 -                     41                                   C                  -
 -                     42                                   C                  -
 -                     43                                   C                  -
 -                     44                                   C                  -
 -                     45                                   C                  -
 -                     46                                   C                  -
 -                     47                                   C                  -
 -                     48                                   C                  -
 -                     49                                   C                  -
 -                     50                                   C                  -
 -                     51                                   C                  -
 -                     52                                   C                  -
 -                     53                                   C                  -
 -                     54                                   C                  -
 -                     55                                   C                  -
 -                     56                                   C                  -
 -                     57                                   C                  -
 -                     58                                   C                  -
 -                     59                                   C                  -
 -                     60                                   C                  -
 -                     61                                   C                  -
 -                     62                                   C                  -
 -                     63                                   C                  -
 -                     64                                   C                  -
 -                     65                                   C                  -
 -                     66                                   C                  -
 -                     67                                   C                  -
 -                     68                                   C                  -
 -                     69                                   C                  -
 -                     70                                   C                  -
 -                     71                                   C                  -
 -                     72                                   C                  -
 -                     73                                   C                  -
 -                     74                                   C                  -
 -                     75                                   C                  -
 -                     76                                   C                  -
 -                     77                                   C                  -
 -                     78                                   C                  -
 -                     79                                   C                  -
 -                     80                                   C                  -
 -                     81                                   C                  -
 -                     82                                   C                  -
 -                     83                                   C                  -
 -                     84                                   C                  -
 -                     85                                   C                  -
 -                     86                                   C                  -
 -                     87                                   C                  -
 -                     88                                   C                  -
 -                     89                                   C                  -
 -                     90                                   C                  -
 -                     91                                   C                  -
 -                     92                                   C                  -
 -                     93                                   C                  -
 -                     94                                   C                  -
 -                     95                                   C                  -
 -                     96                                   C                  -
 -                     97                                   C                  -
 -                     98                                   C                  -
 -                     99                                   C                  -
 -                    100                                   C                  -
 -                    101                                   C                  -
 -                    102                                   C                  -
 -                    103                                   C                  -
 -                    104                                   C                  -
 -                    105                                   C                  -
 -                    106                                   C                  -
 -                    107                                   C                  -
 -                    108                                   C                  -
 -                    109                                   C                  -
 -                    110                                   C                  -
 -                    111                                   C                  -
 -                    112                                   C                  -
 -                    113                                   C                  -
 -                    114                                   C                  -
 -                    115                                   C                  -
 -                    116                                   C                  -
 -                    117                                   C                  -
 -                    118                                   C                  -
 -                    119                                   C                  -
 -                    120                                   C                  -
 -                    121                                   C                  -
 -                    122                                   C                  -
 -                    123                                   C                  -
 -                    124                                   C                  -
 -                    125                                   C                  -
 -                    126                                   C                  -
 -                    127                                   C                  -
 -                    128                                   C                  -
 -                    129                                   C                  -
 -                    130                                   C                  -
 -                    131                                   C                  -
 -                    132                                   C                  -
 -                    133                                   C                  -
 -                    134                                   C                  -
 -                    135                                   C                  -
 -                    136                                   C                  -
 -                    137                                   C                  -
 -                    138                                   C                  -
 -                    139                                   C                  -
 -                    140                                   C                  -
 -                    141                                   C                  -
 -                    142                                   C                  -
 -                    143                                   C                  -
 -                    144                                   C                  -
 -                    145                                   C                  -
 -                    146                                   C                  -
 -                    147                                   C                  -
 -                    148                                   C                  -
 -                    149                                   C                  -
 -                    150                                   C                  -
 -                    151                                   C                  -
 -                    152                                   C                  -
 -                    153                                   C                  -
 -                    154                                   C                  -
 -                    155                                   C                  -
 -                    156                                   C                  -
 -                    157                                   C                  -
 -                    158                                   C                  -
 -                    159                                   C                  -
 -                    160                                   C                  -
 -                    161                                   C                  -
 -                    162                                   C                  -
 -                    163                                   C                  -
 -                    164                                   C                  -
 -                    165                                   C                  -
 -                    166                                   C                  -
 -                    167                                   C                  -
 -                    168                                   C                  -
 -                    169                                   C                  -
 -                    170                                   C                  -
 -                    171                                   C                  -
 -                    172                                   C                  -
 -                    173                                   C                  -
 -                    174                                   C                  -
 -                    175                                   C                  -
 -                    176                                   C                  -
 -                    177                                   C                  -
 -                    178                                   C                  -
 -                    179                                   C                  -
 -                    180                                   C                  -
 -                    181                                   C                  -
 -                    182                                   C                  -
 -                    183                                   C                  -
 -                    184                                   C                  -
 -                    185                                   C                  -
 -                    186                                   C                  -
 -                    187                                   C                  -
 -                    188                                   C                  -
 -                    189                                   C                  -
 -                    190                                   C                  -
 -                    191                                   C                  -
 -                    192                                   C                  -
 -                    193                                   C                  -
 -                    194                                   C                  -
 -                    195                                   C                  -
 -                    196                                   C                  -
 -                    197                                   C                  -
 -                    198                                   C                  -
 -                    199                                   C                  -
 -                    200                                   C                  -
 -                    201                                   C                  -
 -                    202                                   C                  -
 -                    203                                   C                  -
 -                    204                                   C                  -
 -                    205                                   C                  -
 -                    206                                   C                  -
 -                    207                                   C                  -
 -                    208                                   C                  -
 -                    209                                   C                  -
 -                    210                                   C                  -
 -                    211                                   C                  -
 -                    212                                   C                  -
 -                    213                                   C                  -
 -                    214                                   C                  -
 -                    215                                   C                  -
 -                    216                                   C                  -
 -                    217                                   C                  -
 -                    218                                   C                  -
 -                    219                                   C                  -
 -                    220                                   C                  -
 -                    221                                   C                  -
 -                    222                                   C                  -
 -                    223                                   C                  -
 -                    224                                   C                  -
 -------------------------------------------------------------------------------

 *******************************************************************************
 *******************************************************************************
 **                                                                           **
 **     #####                         ##              ##                      **
 **    ##   ##            ##          ##              ##                      **
 **   ##     ##                       ##            ######                    **
 **   ##     ##  ##   ##  ##   #####  ##  ##   ####   ##    #####    #####    **
 **   ##     ##  ##   ##  ##  ##      ## ##   ##      ##   ##   ##  ##   ##   **
 **   ##  ## ##  ##   ##  ##  ##      ####     ###    ##   ######   ######    **
 **    ##  ###   ##   ##  ##  ##      ## ##      ##   ##   ##       ##        **
 **     #######   #####   ##   #####  ##  ##  ####    ##    #####   ##        **
 **           ##                                                    ##        **
 **                                                                           **
 **                                                ... make the atoms dance   **
 **                                                                           **
 **            Copyright (C) by CP2K developers group (2000-2022)             **
 **                      J. Chem. Phys. 152, 194103 (2020)                    **
 **                                                                           **
 *******************************************************************************


 TOTAL NUMBERS AND MAXIMUM NUMBERS

  Total number of            - Atomic kinds:                                   1
                             - Atoms:                                        224
                             - Shell sets:                                   224
                             - Shells:                                      1120
                             - Primitive Cartesian functions:               1120
                             - Cartesian basis functions:                   3136
                             - Spherical basis functions:                   2912

  Maximum angular momentum of- Orbital basis functions:                        2
                             - Local part of the GTH pseudopotential:          2
                             - Non-local part of the GTH pseudopotential:      0


 SCF PARAMETERS         Density guess:                                    ATOMIC
                        --------------------------------------------------------
                        max_scf:                                             100
                        max_scf_history:                                       0
                        max_diis:                                              4
                        --------------------------------------------------------
                        eps_scf:                                        3.00E-07
                        eps_scf_history:                                0.00E+00
                        eps_diis:                                       1.00E-01
                        eps_eigval:                                     1.00E-05
                        --------------------------------------------------------
                        level_shift [a.u.]:                             0.000000
                        added MOs                                       100  100
                        --------------------------------------------------------
                        Mixing method:                            BROYDEN_MIXING
                                                charge density mixing in g-space
                        --------------------------------------------------------
                        Smear method:                                FERMI_DIRAC
                        Electronic temperature [K]:                        300.0
                        Electronic temperature [a.u.]:                  9.50E-04
                        Accuracy threshold:                             1.00E-10
                        --------------------------------------------------------
                        Outer loop SCF in use 
                        No variables optimised in outer loop
                        eps_scf                                         1.00E-06
                        max_scf                                               30
                        DIIS optimization
                        DIIS buffer length                                     3
                        step_size                                       5.00E-01

 Spin 1

 Number of electrons:                                                        448
 Number of occupied orbitals:                                                448
 Number of molecular orbitals:                                               548

 Spin 2

 Number of electrons:                                                        448
 Number of occupied orbitals:                                                448
 Number of molecular orbitals:                                               548

 Number of orbital functions:                                               2912
 Number of independent orbital functions:                                   2912

 Extrapolation method: initial_guess


 SCF WAVEFUNCTION OPTIMIZATION

  Step     Update method      Time    Convergence         Total energy    Change
  ------------------------------------------------------------------------------
     1 NoMix/Diag. 0.10E+00  162.6     0.46299972     -1267.4804792661 -1.27E+03
     2 Broy./Diag. 0.10E+00  308.5     0.00118785     -1217.5037911479  5.00E+01
     3 Broy./Diag. 0.10E+00  307.3     0.01321994     -1255.8618381657 -3.84E+01
     4 Broy./Diag. 0.10E+00  307.0     0.00021019     -1272.2227456159 -1.64E+01
     5 Broy./Diag. 0.10E+00  307.5     0.00173224     -1272.9517135687 -7.29E-01
     6 Broy./Diag. 0.10E+00  290.6     0.00006308     -1274.4228206698 -1.47E+00
     7 Broy./Diag. 0.10E+00  296.2     0.00057510     -1275.0967210860 -6.74E-01
     8 Broy./Diag. 0.10E+00  305.1     0.00003160     -1275.5931962814 -4.96E-01
     9 Broy./Diag. 0.10E+00  269.2     0.00042946     -1275.7892846522 -1.96E-01
    10 Broy./Diag. 0.10E+00  327.8     0.00002262     -1276.0201469385 -2.31E-01
    11 Broy./Diag. 0.10E+00  314.2     0.00027728     -1275.9832383138  3.69E-02
    12 Broy./Diag. 0.10E+00  309.2     0.00001058     -1276.0239262181 -4.07E-02
    13 Broy./Diag. 0.10E+00  305.9     0.00015531     -1276.0238859253  4.03E-05
    14 Broy./Diag. 0.10E+00  321.8     0.00001154     -1276.0464546866 -2.26E-02
    15 Broy./Diag. 0.10E+00  294.1     0.00007019     -1276.0904538157 -4.40E-02
    16 Broy./Diag. 0.10E+00  288.4     0.00000486     -1276.1093653149 -1.89E-02
    17 Broy./Diag. 0.10E+00  286.1     0.00001449     -1276.0931406270  1.62E-02
    18 Broy./Diag. 0.10E+00  278.7     0.00000583     -1276.0791700942  1.40E-02
    19 Broy./Diag. 0.10E+00  295.5     0.00000231     -1276.0762804769  2.89E-03
    20 Broy./Diag. 0.10E+00  307.8     0.00000722     -1276.0788593561 -2.58E-03
    21 Broy./Diag. 0.10E+00  263.8     0.00000644     -1276.0841955861 -5.34E-03
    22 Broy./Diag. 0.10E+00  289.6     0.00000859     -1276.0905486618 -6.35E-03
    23 Broy./Diag. 0.10E+00  298.9     0.00000493     -1276.0944531504 -3.90E-03
    24 Broy./Diag. 0.10E+00  252.7     0.00001287     -1276.0934718075  9.81E-04
    25 Broy./Diag. 0.10E+00  273.2     0.00000545     -1276.0940540151 -5.82E-04
    26 Broy./Diag. 0.10E+00  303.2     0.00000289     -1276.0951791877 -1.13E-03
    27 Broy./Diag. 0.10E+00  335.7     0.00000436     -1276.0987150388 -3.54E-03
    28 Broy./Diag. 0.10E+00  308.9     0.00000124     -1276.1014806840 -2.77E-03
    29 Broy./Diag. 0.10E+00  283.9     0.00000156     -1276.1025956388 -1.11E-03
    30 Broy./Diag. 0.10E+00  295.9     0.00000058     -1276.1025779595  1.77E-05
    31 Broy./Diag. 0.10E+00  306.5     0.00000114     -1276.1017875491  7.90E-04
    32 Broy./Diag. 0.10E+00  275.3     0.00000105     -1276.1008060305  9.82E-04
    33 Broy./Diag. 0.10E+00  302.8     0.00000083     -1276.1003368866  4.69E-04
    34 Broy./Diag. 0.10E+00  327.8     0.00000232     -1276.1005198076 -1.83E-04
    35 Broy./Diag. 0.10E+00  305.1     0.00000097     -1276.1007531280 -2.33E-04
    36 Broy./Diag. 0.10E+00  277.9     0.00000164     -1276.1008473496 -9.42E-05
    37 Broy./Diag. 0.10E+00  281.1     0.00000052     -1276.1004970303  3.50E-04
    38 Broy./Diag. 0.10E+00  303.8     0.00000044     -1276.1002302316  2.67E-04
    39 Broy./Diag. 0.10E+00  302.8     0.00000077     -1276.1003730521 -1.43E-04
    40 Broy./Diag. 0.10E+00  311.6     0.00000025     -1276.1007519953 -3.79E-04

  *** SCF run converged in    40 steps ***


  Electronic density on regular grids:       -895.9999999997        0.0000000003
  Core density on regular grids:              895.9999999992       -0.0000000008
  Total charge density on r-space grids:       -0.0000000005
  Total charge density g-space grids:          -0.0000000005

  Overlap energy of the core charge distribution:               0.00003699278578
  Self energy of the core charge distribution:              -2987.04177559540722
  Core Hamiltonian energy:                                    936.04000996321747
  Hartree energy:                                            1167.02419138997357
  Exchange-correlation energy:                               -391.64609344203416
  Dispersion energy:                                           -0.47712130026064
  Electronic entropic energy:                                  -0.00000000357196
  Fermi energy:                                                -0.08189607954103

  Total energy:                                             -1276.10075199529751

  outer SCF iter =    1 RMS gradient =   0.25E-06 energy =      -1276.1007519953
  outer SCF loop converged in   1 iterations or   40 steps


  Integrated absolute spin density  :                               0.0000000066
  WARNING: S**2 computation does not yet treat fractional occupied orbitals

 *** WARNING in qs_loc_utils.F:1500 :: User requested the calculation of ***
 *** the localized wavefunction but the section LOCALIZE was not         ***
 *** specified. Localization will not be performed!                      ***


 -------------------------------------------------------------------------------
 -                                                                             -
 -  BSSE CALCULATION         FRAGMENT CONF: 01        FRAGMENT SUBCONF: 01     -
 -                           CHARGE =     0           MULTIPLICITY =     0     -
 -                                                                             -
 -                 ATOM INDEX                              ATOM NAME           -
 -                 ----------                              ---------           -
 -                    225                                   Na                 -
 -------------------------------------------------------------------------------

 *******************************************************************************
 *******************************************************************************
 **                                                                           **
 **     #####                         ##              ##                      **
 **    ##   ##            ##          ##              ##                      **
 **   ##     ##                       ##            ######                    **
 **   ##     ##  ##   ##  ##   #####  ##  ##   ####   ##    #####    #####    **
 **   ##     ##  ##   ##  ##  ##      ## ##   ##      ##   ##   ##  ##   ##   **
 **   ##  ## ##  ##   ##  ##  ##      ####     ###    ##   ######   ######    **
 **    ##  ###   ##   ##  ##  ##      ## ##      ##   ##   ##       ##        **
 **     #######   #####   ##   #####  ##  ##  ####    ##    #####   ##        **
 **           ##                                                    ##        **
 **                                                                           **
 **                                                ... make the atoms dance   **
 **                                                                           **
 **            Copyright (C) by CP2K developers group (2000-2022)             **
 **                      J. Chem. Phys. 152, 194103 (2020)                    **
 **                                                                           **
 *******************************************************************************

 *** WARNING in qs_environment.F:1470 :: More ADDED_MOs requested for beta ***
 *** spin than available.                                                  ***


 *** WARNING in qs_environment.F:1486 :: More added MOs requested than     ***
 *** available. The full set of unoccupied MOs will be used. Use           ***
 *** 'ADDED_MOS -1' to always use all available MOs and to get rid of this ***
 *** warning.                                                              ***



 TOTAL NUMBERS AND MAXIMUM NUMBERS

  Total number of            - Atomic kinds:                                   1
                             - Atoms:                                          1
                             - Shell sets:                                     1
                             - Shells:                                         5
                             - Primitive Cartesian functions:                  7
                             - Cartesian basis functions:                      9
                             - Spherical basis functions:                      9

  Maximum angular momentum of- Orbital basis functions:                        1
                             - Local part of the GTH pseudopotential:          2
                             - Non-local part of the GTH pseudopotential:      1


 SCF PARAMETERS         Density guess:                                    ATOMIC
                        --------------------------------------------------------
                        max_scf:                                             100
                        max_scf_history:                                       0
                        max_diis:                                              4
                        --------------------------------------------------------
                        eps_scf:                                        3.00E-07
                        eps_scf_history:                                0.00E+00
                        eps_diis:                                       1.00E-01
                        eps_eigval:                                     1.00E-05
                        --------------------------------------------------------
                        level_shift [a.u.]:                             0.000000
                        added MOs                                         4    5
                        --------------------------------------------------------
                        Mixing method:                            BROYDEN_MIXING
                                                charge density mixing in g-space
                        --------------------------------------------------------
                        Smear method:                                FERMI_DIRAC
                        Electronic temperature [K]:                        300.0
                        Electronic temperature [a.u.]:                  9.50E-04
                        Accuracy threshold:                             1.00E-10
                        --------------------------------------------------------
                        Outer loop SCF in use 
                        No variables optimised in outer loop
                        eps_scf                                         1.00E-06
                        max_scf                                               30
                        DIIS optimization
                        DIIS buffer length                                     3
                        step_size                                       5.00E-01

 Spin 1

 Number of electrons:                                                          5
 Number of occupied orbitals:                                                  5
 Number of molecular orbitals:                                                 9

 Spin 2

 Number of electrons:                                                          4
 Number of occupied orbitals:                                                  4
 Number of molecular orbitals:                                                 9

 Number of orbital functions:                                                  9
 Number of independent orbital functions:                                      9

 Extrapolation method: initial_guess


 SCF WAVEFUNCTION OPTIMIZATION

  Step     Update method      Time    Convergence         Total energy    Change
  ------------------------------------------------------------------------------
     1 NoMix/Diag. 0.10E+00    9.9     0.42029966       -47.1734753414 -4.72E+01
     2 Broy./Diag. 0.10E+00   18.1     0.00656689       -47.1323373133  4.11E-02
     3 Broy./Diag. 0.10E+00   15.3     0.02134404       -47.1736215098 -4.13E-02
     4 Broy./Diag. 0.10E+00   15.6     0.00031718       -47.1653717470  8.25E-03
     5 Broy./Diag. 0.10E+00   18.8     0.12560405       -47.1763306012 -1.10E-02
     6 Broy./Diag. 0.10E+00   16.6     0.01738301       -46.7688356160  4.07E-01
     7 Broy./Diag. 0.10E+00   16.4     0.00448912       -46.7606530948  8.18E-03
     8 Broy./Diag. 0.10E+00   18.9     0.01205598       -46.7740954520 -1.34E-02
     9 Broy./Diag. 0.10E+00   15.4     0.04264359       -46.8684350610 -9.43E-02
    10 Broy./Diag. 0.10E+00   16.0     0.01763594       -47.0208807932 -1.52E-01
    11 Broy./Diag. 0.10E+00   20.2     0.00534710       -47.0909204666 -7.00E-02
    12 Broy./Diag. 0.10E+00   18.3     0.01546193       -47.1097662039 -1.88E-02
    13 Broy./Diag. 0.10E+00   16.7     0.01906508       -47.1633426269 -5.36E-02
    14 Broy./Diag. 0.10E+00   18.5     0.00430796       -47.2149207301 -5.16E-02
    15 Broy./Diag. 0.10E+00   19.9     0.01095468       -47.1824710876  3.24E-02
    16 Broy./Diag. 0.10E+00   18.9     0.01015741       -47.2051373646 -2.27E-02
    17 Broy./Diag. 0.10E+00   16.3     0.00140280       -47.2444406552 -3.93E-02
    18 Broy./Diag. 0.10E+00   20.7     0.00385459       -47.2410757660  3.36E-03
    19 Broy./Diag. 0.10E+00   18.3     0.00350028       -47.2505770737 -9.50E-03
    20 Broy./Diag. 0.10E+00   17.6     0.00205649       -47.2672930036 -1.67E-02
    21 Broy./Diag. 0.10E+00   13.5     0.00194455       -47.2696364555 -2.34E-03
    22 Broy./Diag. 0.10E+00   15.8     0.00020752       -47.2615652600  8.07E-03
    23 Broy./Diag. 0.10E+00   18.5     0.00017995       -47.2521957696  9.37E-03
    24 Broy./Diag. 0.10E+00   15.8     0.01523107       -47.2602201174 -8.02E-03
    25 Broy./Diag. 0.10E+00   18.8     0.00363125       -47.1904487643  6.98E-02
    26 Broy./Diag. 0.10E+00   15.6     0.00258510       -47.1755065969  1.49E-02
    27 Broy./Diag. 0.10E+00   17.7     0.00124469       -47.1642338574  1.13E-02
    28 Broy./Diag. 0.10E+00   16.6     0.00058360       -47.1609304377  3.30E-03
    29 Broy./Diag. 0.10E+00   19.0     0.00060264       -47.1634789168 -2.55E-03
    30 Broy./Diag. 0.10E+00   17.6     0.00229929       -47.1672550852 -3.78E-03
    31 Broy./Diag. 0.10E+00   19.5     0.00198309       -47.1752247300 -7.97E-03
    32 Broy./Diag. 0.10E+00   17.3     0.00215877       -47.1825474815 -7.32E-03
    33 Broy./Diag. 0.10E+00   17.9     0.00166954       -47.1917439531 -9.20E-03
    34 Broy./Diag. 0.10E+00   20.6     0.00344457       -47.1992516911 -7.51E-03
    35 Broy./Diag. 0.10E+00   17.3     0.00552351       -47.2142020889 -1.50E-02
    36 Broy./Diag. 0.10E+00   17.2     0.00174651       -47.2375823110 -2.34E-02
    37 Broy./Diag. 0.10E+00   18.0     0.00059321       -47.2459587068 -8.38E-03
    38 Broy./Diag. 0.10E+00   16.2     0.00448510       -47.2497136327 -3.75E-03
    39 Broy./Diag. 0.10E+00   18.0     0.00023588       -47.2708507321 -2.11E-02
    40 Broy./Diag. 0.10E+00   16.8     0.00013608       -47.2714856949 -6.35E-04
    41 Broy./Diag. 0.10E+00   17.6     0.00016368       -47.2688183112  2.67E-03
    42 Broy./Diag. 0.10E+00   16.7     0.00017655       -47.2555083448  1.33E-02
    43 Broy./Diag. 0.10E+00   19.3     0.00016532       -47.2440679991  1.14E-02
    44 Broy./Diag. 0.10E+00   19.0     0.00017079       -47.2324794288  1.16E-02
    45 Broy./Diag. 0.10E+00   17.1     0.00028198       -47.2162989798  1.62E-02
    46 Broy./Diag. 0.10E+00   17.3     0.00008270       -47.2088169248  7.48E-03
    47 Broy./Diag. 0.10E+00   19.9     0.00048285       -47.1860358401  2.28E-02
    48 Broy./Diag. 0.10E+00   16.4     0.00021668       -47.1726519136  1.34E-02
    49 Broy./Diag. 0.10E+00   16.3     0.00012245       -47.1694136959  3.24E-03
    50 Broy./Diag. 0.10E+00   19.9     0.00020251       -47.1684560839  9.58E-04
    51 Broy./Diag. 0.10E+00   17.3     0.00002336       -47.1682302914  2.26E-04
    52 Broy./Diag. 0.10E+00   15.8     0.00004441       -47.1681873009  4.30E-05
    53 Broy./Diag. 0.10E+00   19.9     0.00006436       -47.1680290644  1.58E-04
    54 Broy./Diag. 0.10E+00   18.2     0.00002048       -47.1678468883  1.82E-04
    55 Broy./Diag. 0.10E+00   17.3     0.00006893       -47.1676438908  2.03E-04
    56 Broy./Diag. 0.10E+00   20.3     0.00001360       -47.1676682224 -2.43E-05
    57 Broy./Diag. 0.10E+00   17.6     0.00004137       -47.1682907693 -6.23E-04
    58 Broy./Diag. 0.10E+00   16.3     0.00015446       -47.1676467834  6.44E-04
    59 Broy./Diag. 0.10E+00   20.9     0.00001352       -47.1673038899  3.43E-04
    60 Broy./Diag. 0.10E+00   17.6     0.00014680       -47.1674887118 -1.85E-04
    61 Broy./Diag. 0.10E+00   17.9     0.00000892       -47.1672263650  2.62E-04
    62 Broy./Diag. 0.10E+00   15.7     0.00004620       -47.1672712726 -4.49E-05
    63 Broy./Diag. 0.10E+00   17.1     0.00014295       -47.1674465401 -1.75E-04
    64 Broy./Diag. 0.10E+00   17.0     0.00007530       -47.1681297837 -6.83E-04
    65 Broy./Diag. 0.10E+00   17.3     0.00000383       -47.1682972595 -1.67E-04
    66 Broy./Diag. 0.10E+00   16.8     0.00000245       -47.1682432548  5.40E-05
    67 Broy./Diag. 0.10E+00   18.2     0.00016323       -47.1682815785 -3.83E-05
    68 Broy./Diag. 0.10E+00   18.2     0.00001151       -47.1677915740  4.90E-04
    69 Broy./Diag. 0.10E+00   16.7     0.00002241       -47.1677063785  8.52E-05
    70 Broy./Diag. 0.10E+00   18.4     0.00001705       -47.1677887919 -8.24E-05
    71 Broy./Diag. 0.10E+00   17.0     0.00003862       -47.1679026608 -1.14E-04
    72 Broy./Diag. 0.10E+00   19.1     0.00005164       -47.1677301254  1.73E-04
    73 Broy./Diag. 0.10E+00   18.0     0.00010444       -47.1678916685 -1.62E-04
    74 Broy./Diag. 0.10E+00   18.0     0.00003093       -47.1681560687 -2.64E-04
    75 Broy./Diag. 0.10E+00   15.3     0.00001705       -47.1680716667  8.44E-05
    76 Broy./Diag. 0.10E+00   16.8     0.00001601       -47.1683809869 -3.09E-04
    77 Broy./Diag. 0.10E+00   19.1     0.00000390       -47.1683941607 -1.32E-05
    78 Broy./Diag. 0.10E+00   17.9     0.00000278       -47.1683722769  2.19E-05
    79 Broy./Diag. 0.10E+00   19.2     0.00000414       -47.1684531873 -8.09E-05
    80 Broy./Diag. 0.10E+00   16.5     0.00000665       -47.1684286121  2.46E-05
    81 Broy./Diag. 0.10E+00   15.5     0.00002438       -47.1681535916  2.75E-04
    82 Broy./Diag. 0.10E+00   19.7     0.00004571       -47.1678483107  3.05E-04
    83 Broy./Diag. 0.10E+00   16.6     0.00005260       -47.1676045841  2.44E-04
    84 Broy./Diag. 0.10E+00   17.6     0.00006012       -47.1674750702  1.30E-04
    85 Broy./Diag. 0.10E+00   19.0     0.00001356       -47.1673869424  8.81E-05
    86 Broy./Diag. 0.10E+00   18.6     0.00002645       -47.1674668842 -7.99E-05
    87 Broy./Diag. 0.10E+00   16.2     0.00005175       -47.1675980401 -1.31E-04
    88 Broy./Diag. 0.10E+00   16.9     0.00004878       -47.1677475753 -1.50E-04
    89 Broy./Diag. 0.10E+00   18.8     0.00000686       -47.1676337241  1.14E-04
    90 Broy./Diag. 0.10E+00   17.3     0.00000723       -47.1677144333 -8.07E-05
    91 Broy./Diag. 0.10E+00   18.3     0.00000942       -47.1676880681  2.64E-05
    92 Broy./Diag. 0.10E+00   19.8     0.00004880       -47.1676733462  1.47E-05
    93 Broy./Diag. 0.10E+00   17.5     0.00000815       -47.1678640186 -1.91E-04
    94 Broy./Diag. 0.10E+00   16.4     0.00009960       -47.1678807668 -1.67E-05
    95 Broy./Diag. 0.10E+00   16.8     0.00001208       -47.1682779762 -3.97E-04
    96 Broy./Diag. 0.10E+00   18.5     0.00003636       -47.1683326671 -5.47E-05
    97 Broy./Diag. 0.10E+00   13.7     0.00000440       -47.1683514934 -1.88E-05
    98 Broy./Diag. 0.10E+00   17.2     0.00000914       -47.1684476964 -9.62E-05
    99 Broy./Diag. 0.10E+00   18.7     0.00001827       -47.1684332414  1.45E-05
   100 Broy./Diag. 0.10E+00   18.5     0.00000632       -47.1684162285  1.70E-05

  Leaving inner SCF loop after reaching   100 steps.


  Electronic density on regular grids:         -9.0001396954       -0.0001396954
  Core density on regular grids:                9.0000000000       -0.0000000000
  Total charge density on r-space grids:       -0.0001396954
  Total charge density g-space grids:          -0.0001396954

  Overlap energy of the core charge distribution:               0.00000000000000
  Self energy of the core charge distribution:                -96.60649019442629
  Core Hamiltonian energy:                                     29.76261470416179
  Hartree energy:                                              26.72906314077357
  Exchange-correlation energy:                                 -7.05360098507505
  Dispersion energy:                                           -0.00000289392739
  Electronic entropic energy:                                  -0.00000000000000
  Fermi energy:                                                -0.04790592479917

  Total energy:                                               -47.16841622849336

  outer SCF iter =    1 RMS gradient =   0.63E-05 energy =        -47.1684162285
     1 Broy./Diag. 0.10E+00   33.2     0.00012372       -47.1674420655  9.74E-04
     2 Broy./Diag. 0.10E+00   21.4     0.00012581       -47.1685613440 -1.12E-03
     3 Broy./Diag. 0.10E+00   19.6     0.00001572       -47.1682198659  3.41E-04
     4 Broy./Diag. 0.10E+00   15.6     0.00000245       -47.1681016998  1.18E-04
     5 Broy./Diag. 0.10E+00   19.2     0.00001764       -47.1681559211 -5.42E-05
     6 Broy./Diag. 0.10E+00   20.7     0.00000902       -47.1680048496  1.51E-04
     7 Broy./Diag. 0.10E+00   16.1     0.00000935       -47.1678929027  1.12E-04
     8 Broy./Diag. 0.10E+00   19.0     0.00000694       -47.1679766758 -8.38E-05
     9 Broy./Diag. 0.10E+00   21.0     0.00000090       -47.1679542940  2.24E-05
    10 Broy./Diag. 0.10E+00   17.2     0.00000365       -47.1678895235  6.48E-05
    11 Broy./Diag. 0.10E+00   20.6     0.00001337       -47.1678991095 -9.59E-06
    12 Broy./Diag. 0.10E+00   18.1     0.00000886       -47.1679227311 -2.36E-05
    13 Broy./Diag. 0.10E+00   16.8     0.00000650       -47.1678978074  2.49E-05
    14 Broy./Diag. 0.10E+00   19.3     0.00001356       -47.1678025846  9.52E-05
    15 Broy./Diag. 0.10E+00   19.5     0.00000117       -47.1677574972  4.51E-05
    16 Broy./Diag. 0.10E+00   16.3     0.00000727       -47.1675758568  1.82E-04
    17 Broy./Diag. 0.10E+00   21.0     0.00001378       -47.1674982560  7.76E-05
    18 Broy./Diag. 0.10E+00   16.1     0.00000745       -47.1677213020 -2.23E-04
    19 Broy./Diag. 0.10E+00   17.7     0.00000272       -47.1676761336  4.52E-05
    20 Broy./Diag. 0.10E+00   16.9     0.00000362       -47.1675269171  1.49E-04
    21 Broy./Diag. 0.10E+00   16.8     0.00000993       -47.1674478378  7.91E-05
    22 Broy./Diag. 0.10E+00   16.6     0.00000245       -47.1673104004  1.37E-04
    23 Broy./Diag. 0.10E+00   19.7     0.00000525       -47.1674219075 -1.12E-04
    24 Broy./Diag. 0.10E+00   18.2     0.00000026       -47.1674530640 -3.12E-05

  *** SCF run converged in    24 steps ***


  Electronic density on regular grids:         -9.0001396891       -0.0001396891
  Core density on regular grids:                9.0000000000       -0.0000000000
  Total charge density on r-space grids:       -0.0001396891
  Total charge density g-space grids:          -0.0001396891

  Overlap energy of the core charge distribution:               0.00000000000000
  Self energy of the core charge distribution:                -96.60649019442629
  Core Hamiltonian energy:                                     29.76275830259874
  Hartree energy:                                              26.72973619832428
  Exchange-correlation energy:                                 -7.05345447652609
  Dispersion energy:                                           -0.00000289392739
  Electronic entropic energy:                                  -0.00000000000000
  Fermi energy:                                                -0.04767323641564

  Total energy:                                               -47.16745306395674

  outer SCF iter =    2 RMS gradient =   0.26E-06 energy =        -47.1674530640
  outer SCF loop converged in   2 iterations or  124 steps


  Integrated absolute spin density  :                               1.0000417640
  WARNING: S**2 computation does not yet treat fractional occupied orbitals

 *** WARNING in qs_loc_utils.F:1500 :: User requested the calculation of ***
 *** the localized wavefunction but the section LOCALIZE was not         ***
 *** specified. Localization will not be performed!                      ***


 -------------------------------------------------------------------------------
 -                                                                             -
 -  BSSE CALCULATION         FRAGMENT CONF: 11        FRAGMENT SUBCONF: 10     -
 -                           CHARGE =     0           MULTIPLICITY =     0     -
 -                                                                             -
 -                 ATOM INDEX                              ATOM NAME           -
 -                 ----------                              ---------           -
 -                      1                                   C                  -
 -                      2                                   C                  -
 -                      3                                   C                  -
 -                      4                                   C                  -
 -                      5                                   C                  -
 -                      6                                   C                  -
 -                      7                                   C                  -
 -                      8                                   C                  -
 -                      9                                   C                  -
 -                     10                                   C                  -
 -                     11                                   C                  -
 -                     12                                   C                  -
 -                     13                                   C                  -
 -                     14                                   C                  -
 -                     15                                   C                  -
 -                     16                                   C                  -
 -                     17                                   C                  -
 -                     18                                   C                  -
 -                     19                                   C                  -
 -                     20                                   C                  -
 -                     21                                   C                  -
 -                     22                                   C                  -
 -                     23                                   C                  -
 -                     24                                   C                  -
 -                     25                                   C                  -
 -                     26                                   C                  -
 -                     27                                   C                  -
 -                     28                                   C                  -
 -                     29                                   C                  -
 -                     30                                   C                  -
 -                     31                                   C                  -
 -                     32                                   C                  -
 -                     33                                   C                  -
 -                     34                                   C                  -
 -                     35                                   C                  -
 -                     36                                   C                  -
 -                     37                                   C                  -
 -                     38                                   C                  -
 -                     39                                   C                  -
 -                     40                                   C                  -
 -                     41                                   C                  -
 -                     42                                   C                  -
 -                     43                                   C                  -
 -                     44                                   C                  -
 -                     45                                   C                  -
 -                     46                                   C                  -
 -                     47                                   C                  -
 -                     48                                   C                  -
 -                     49                                   C                  -
 -                     50                                   C                  -
 -                     51                                   C                  -
 -                     52                                   C                  -
 -                     53                                   C                  -
 -                     54                                   C                  -
 -                     55                                   C                  -
 -                     56                                   C                  -
 -                     57                                   C                  -
 -                     58                                   C                  -
 -                     59                                   C                  -
 -                     60                                   C                  -
 -                     61                                   C                  -
 -                     62                                   C                  -
 -                     63                                   C                  -
 -                     64                                   C                  -
 -                     65                                   C                  -
 -                     66                                   C                  -
 -                     67                                   C                  -
 -                     68                                   C                  -
 -                     69                                   C                  -
 -                     70                                   C                  -
 -                     71                                   C                  -
 -                     72                                   C                  -
 -                     73                                   C                  -
 -                     74                                   C                  -
 -                     75                                   C                  -
 -                     76                                   C                  -
 -                     77                                   C                  -
 -                     78                                   C                  -
 -                     79                                   C                  -
 -                     80                                   C                  -
 -                     81                                   C                  -
 -                     82                                   C                  -
 -                     83                                   C                  -
 -                     84                                   C                  -
 -                     85                                   C                  -
 -                     86                                   C                  -
 -                     87                                   C                  -
 -                     88                                   C                  -
 -                     89                                   C                  -
 -                     90                                   C                  -
 -                     91                                   C                  -
 -                     92                                   C                  -
 -                     93                                   C                  -
 -                     94                                   C                  -
 -                     95                                   C                  -
 -                     96                                   C                  -
 -                     97                                   C                  -
 -                     98                                   C                  -
 -                     99                                   C                  -
 -                    100                                   C                  -
 -                    101                                   C                  -
 -                    102                                   C                  -
 -                    103                                   C                  -
 -                    104                                   C                  -
 -                    105                                   C                  -
 -                    106                                   C                  -
 -                    107                                   C                  -
 -                    108                                   C                  -
 -                    109                                   C                  -
 -                    110                                   C                  -
 -                    111                                   C                  -
 -                    112                                   C                  -
 -                    113                                   C                  -
 -                    114                                   C                  -
 -                    115                                   C                  -
 -                    116                                   C                  -
 -                    117                                   C                  -
 -                    118                                   C                  -
 -                    119                                   C                  -
 -                    120                                   C                  -
 -                    121                                   C                  -
 -                    122                                   C                  -
 -                    123                                   C                  -
 -                    124                                   C                  -
 -                    125                                   C                  -
 -                    126                                   C                  -
 -                    127                                   C                  -
 -                    128                                   C                  -
 -                    129                                   C                  -
 -                    130                                   C                  -
 -                    131                                   C                  -
 -                    132                                   C                  -
 -                    133                                   C                  -
 -                    134                                   C                  -
 -                    135                                   C                  -
 -                    136                                   C                  -
 -                    137                                   C                  -
 -                    138                                   C                  -
 -                    139                                   C                  -
 -                    140                                   C                  -
 -                    141                                   C                  -
 -                    142                                   C                  -
 -                    143                                   C                  -
 -                    144                                   C                  -
 -                    145                                   C                  -
 -                    146                                   C                  -
 -                    147                                   C                  -
 -                    148                                   C                  -
 -                    149                                   C                  -
 -                    150                                   C                  -
 -                    151                                   C                  -
 -                    152                                   C                  -
 -                    153                                   C                  -
 -                    154                                   C                  -
 -                    155                                   C                  -
 -                    156                                   C                  -
 -                    157                                   C                  -
 -                    158                                   C                  -
 -                    159                                   C                  -
 -                    160                                   C                  -
 -                    161                                   C                  -
 -                    162                                   C                  -
 -                    163                                   C                  -
 -                    164                                   C                  -
 -                    165                                   C                  -
 -                    166                                   C                  -
 -                    167                                   C                  -
 -                    168                                   C                  -
 -                    169                                   C                  -
 -                    170                                   C                  -
 -                    171                                   C                  -
 -                    172                                   C                  -
 -                    173                                   C                  -
 -                    174                                   C                  -
 -                    175                                   C                  -
 -                    176                                   C                  -
 -                    177                                   C                  -
 -                    178                                   C                  -
 -                    179                                   C                  -
 -                    180                                   C                  -
 -                    181                                   C                  -
 -                    182                                   C                  -
 -                    183                                   C                  -
 -                    184                                   C                  -
 -                    185                                   C                  -
 -                    186                                   C                  -
 -                    187                                   C                  -
 -                    188                                   C                  -
 -                    189                                   C                  -
 -                    190                                   C                  -
 -                    191                                   C                  -
 -                    192                                   C                  -
 -                    193                                   C                  -
 -                    194                                   C                  -
 -                    195                                   C                  -
 -                    196                                   C                  -
 -                    197                                   C                  -
 -                    198                                   C                  -
 -                    199                                   C                  -
 -                    200                                   C                  -
 -                    201                                   C                  -
 -                    202                                   C                  -
 -                    203                                   C                  -
 -                    204                                   C                  -
 -                    205                                   C                  -
 -                    206                                   C                  -
 -                    207                                   C                  -
 -                    208                                   C                  -
 -                    209                                   C                  -
 -                    210                                   C                  -
 -                    211                                   C                  -
 -                    212                                   C                  -
 -                    213                                   C                  -
 -                    214                                   C                  -
 -                    215                                   C                  -
 -                    216                                   C                  -
 -                    217                                   C                  -
 -                    218                                   C                  -
 -                    219                                   C                  -
 -                    220                                   C                  -
 -                    221                                   C                  -
 -                    222                                   C                  -
 -                    223                                   C                  -
 -                    224                                   C                  -
 -                    225                                   Na_ghost           -
 -------------------------------------------------------------------------------

 *******************************************************************************
 *******************************************************************************
 **                                                                           **
 **     #####                         ##              ##                      **
 **    ##   ##            ##          ##              ##                      **
 **   ##     ##                       ##            ######                    **
 **   ##     ##  ##   ##  ##   #####  ##  ##   ####   ##    #####    #####    **
 **   ##     ##  ##   ##  ##  ##      ## ##   ##      ##   ##   ##  ##   ##   **
 **   ##  ## ##  ##   ##  ##  ##      ####     ###    ##   ######   ######    **
 **    ##  ###   ##   ##  ##  ##      ## ##      ##   ##   ##       ##        **
 **     #######   #####   ##   #####  ##  ##  ####    ##    #####   ##        **
 **           ##                                                    ##        **
 **                                                                           **
 **                                                ... make the atoms dance   **
 **                                                                           **
 **            Copyright (C) by CP2K developers group (2000-2022)             **
 **                      J. Chem. Phys. 152, 194103 (2020)                    **
 **                                                                           **
 *******************************************************************************


 TOTAL NUMBERS AND MAXIMUM NUMBERS

  Total number of            - Atomic kinds:                                   2
                             - Atoms:                                        225
                             - Shell sets:                                   225
                             - Shells:                                      1125
                             - Primitive Cartesian functions:               1127
                             - Cartesian basis functions:                   3145
                             - Spherical basis functions:                   2921

[...]
    40 Broy./Diag. 0.10E+00   30.9     0.00000068     -1323.3208315356 -2.73E-04
    41 Broy./Diag. 0.10E+00   33.0     0.00000088     -1323.3208640062 -3.25E-05
    42 Broy./Diag. 0.10E+00   32.6     0.00000047     -1323.3208627523  1.25E-06
    43 Broy./Diag. 0.10E+00   31.1     0.00000051     -1323.3208616473  1.10E-06
    44 Broy./Diag. 0.10E+00   30.8     0.00000090     -1323.3208592300  2.42E-06
    45 Broy./Diag. 0.10E+00   28.5     0.00000013     -1323.3208367266  2.25E-05

  *** SCF run converged in    45 steps ***


  Electronic density on regular grids:       -905.0001412925       -0.0001412925
  Core density on regular grids:              904.9999999992       -0.0000000008
  Total charge density on r-space grids:       -0.0001412933
  Total charge density g-space grids:          -0.0001412933

  Overlap energy of the core charge distribution:               0.00003699278578
  Self energy of the core charge distribution:              -3083.64826578983366
  Core Hamiltonian energy:                                    966.39616290340018
  Hartree energy:                                            1193.41124856438182
  Exchange-correlation energy:                               -398.99499693999610
  Dispersion energy:                                           -0.48289330238274
  Electronic entropic energy:                                  -0.00212915486248
  Fermi energy:                                                -0.06607955451328

  Total energy:                                             -1323.32083672661861

  outer SCF iter =    1 RMS gradient =   0.13E-06 energy =      -1323.3208367266
  outer SCF loop converged in   1 iterations or   45 steps


  Integrated absolute spin density  :                               0.0003320287
  WARNING: S**2 computation does not yet treat fractional occupied orbitals

 *** WARNING in qs_loc_utils.F:1500 :: User requested the calculation of ***
 *** the localized wavefunction but the section LOCALIZE was not         ***
 *** specified. Localization will not be performed!                      ***


 -------------------------------------------------------------------------------
 -                                                                             -
 -                                 BSSE RESULTS                                -
 -                                                                             -
 -                 CP-corrected Total energy:    -1323.315523                  -
 -                                                                             -
 -                       1-body contribution:    -1276.100752                  -
 -                       1-body contribution:      -47.167453                  -
 -                                                                             -
 -                       2-body contribution:       -0.047318                  -
 -                 BSSE-free interaction energy:       -0.047318               -
 -------------------------------------------------------------------------------

 -------------------------------------------------------------------------------
 -                                                                             -
 -                                DBCSR STATISTICS                             -
 -                                                                             -
 -------------------------------------------------------------------------------
 COUNTER                                    TOTAL       BLAS       SMM       ACC
 flops     9 x     9 x     8               164592     100.0%      0.0%      0.0%
 flops     9 x     9 x     9               546750     100.0%      0.0%      0.0%
 flops     9 x     9 x   136               991440     100.0%      0.0%      0.0%
 flops     9 x     9 x   137               998730     100.0%      0.0%      0.0%
 flops     9 x     9 x   132              1710720     100.0%      0.0%      0.0%
 flops     9 x     9 x    32              3950208     100.0%      0.0%      0.0%
 flops     9 x     9 x   160              4406400     100.0%      0.0%      0.0%
 flops     9 x     9 x   128              7050240     100.0%      0.0%      0.0%
 flops     9 x    13 x     8             26627328     100.0%      0.0%      0.0%
 flops    13 x     9 x     8             26627328     100.0%      0.0%      0.0%
 flops     9 x    13 x     9             29955744     100.0%      0.0%      0.0%
 flops    13 x     9 x     9             29955744     100.0%      0.0%      0.0%
 flops     9 x    13 x   136            160392960     100.0%      0.0%      0.0%
 flops    13 x     9 x   136            160392960     100.0%      0.0%      0.0%
 flops     9 x    13 x   137            161572320     100.0%      0.0%      0.0%
 flops    13 x     9 x   137            161572320     100.0%      0.0%      0.0%
 flops     9 x    13 x   132            276756480     100.0%      0.0%      0.0%
 flops    13 x     9 x   132            276756480     100.0%      0.0%      0.0%
 flops     9 x    13 x    32            639055872     100.0%      0.0%      0.0%
 flops    13 x     9 x    32            639055872     100.0%      0.0%      0.0%
 flops     9 x    13 x   160            712857600     100.0%      0.0%      0.0%
 flops    13 x     9 x   160            712857600     100.0%      0.0%      0.0%
 flops     9 x    13 x   128           1140572160     100.0%      0.0%      0.0%
 flops    13 x     9 x   128           1140572160     100.0%      0.0%      0.0%
 flops    13 x    13 x     8           8653881600     100.0%      0.0%      0.0%
 flops    13 x    13 x     9           9735616800     100.0%      0.0%      0.0%
 flops    13 x    13 x   136          52127712000     100.0%      0.0%      0.0%
 flops    13 x    13 x   137          52511004000     100.0%      0.0%      0.0%
 flops    13 x    13 x   132         179891712000     100.0%      0.0%      0.0%
 flops    13 x    13 x    32         207693158400     100.0%      0.0%      0.0%
 flops    13 x    13 x   160         340704000000     100.0%      0.0%      0.0%
 flops    13 x    13 x   128         545126400000     100.0%      0.0%      0.0%
 flops inhomo. stacks                           0       0.0%      0.0%      0.0%
 flops total                         1.402759E+12     100.0%      0.0%      0.0%
 flops max/rank                     90.034773E+09     100.0%      0.0%      0.0%
 matmuls inhomo. stacks                         0       0.0%      0.0%      0.0%
 matmuls total                           51185048     100.0%      0.0%      0.0%
 number of processed stacks                 78328     100.0%      0.0%      0.0%
 average stack size                                   653.5       0.0       0.0
 marketing flops                     1.944759E+12
 -------------------------------------------------------------------------------
 # multiplications                            752
 max memory usage/rank               1.280066E+09
 # max total images/rank                        1
 # max 3D layers                                1
 # MPI messages exchanged                   72192
 MPI messages size (bytes):
  total size                        22.968828E+09
  min size                           0.000000E+00
  max size                         943.360000E+03
  average size                     318.163062E+03
 MPI breakdown and total messages size (bytes):
             size <=      128               22320                        0
       128 < size <=     8192                1488                   964224
      8192 < size <=    32768                   0                        0
     32768 < size <=   131072                6096                302709072
    131072 < size <=  4194304               42288              22665173232
   4194304 < size <= 16777216                   0                        0
  16777216 < size                               0                        0
 -------------------------------------------------------------------------------
 -                                                                             -
 -                      DBCSR MESSAGE PASSING PERFORMANCE                      -
 -                                                                             -
 -------------------------------------------------------------------------------
 ROUTINE             CALLS      AVE VOLUME [Bytes]
 MP_Bcast               33                     12.
 MP_Allreduce         5357                      8.
 MP_Alltoall         21116                 706389.
 MP_ISend            12032                 126451.
 MP_IRecv            12032                 112901.
 -------------------------------------------------------------------------------

 -------------------------------------------------------------------------------
 -                                                                             -
 -                                DBM STATISTICS                               -
 -                                                                             -
 -------------------------------------------------------------------------------
    M  x    N  x    K                                          COUNT     PERCENT
 -------------------------------------------------------------------------------

 -------------------------------------------------------------------------------
 -                                                                             -
 -                                GRID STATISTICS                              -
 -                                                                             -
 -------------------------------------------------------------------------------
 LP    KERNEL             BACKEND                              COUNT     PERCENT
 4     collocate general  REF                              112478720      49.81%
 4     integrate general  REF                              110721240      49.03%
 3     collocate general  REF                                1289570       0.57%
 3     integrate general  REF                                1271576       0.56%
 2     collocate general  REF                                  33320       0.01%
 2     integrate general  REF                                  32928       0.01%
 0     collocate general  REF                                  10800       0.00%
 -------------------------------------------------------------------------------

 MEMORY| Estimated peak process memory [MiB]                                1221

 -------------------------------------------------------------------------------
 -                                                                             -
 -                         MESSAGE PASSING PERFORMANCE                         -
 -                                                                             -
 -------------------------------------------------------------------------------

 ROUTINE             CALLS      AVE VOLUME [Bytes]
 MP_Group               24
 MP_Bcast             1277                 758179.
 MP_Allreduce         8428                    838.
 MP_Sync              1024
 MP_Alltoall          9513               22282781.
 MP_SendRecv         39564                 465571.
 MP_ISendRecv        30120                 457349.
 MP_Wait             53801
 MP_comm_split         248
 MP_ISend            17132                2766974.
 MP_IRecv            17132                2767199.
 MP_Recv               294                 657718.
 -------------------------------------------------------------------------------


 -------------------------------------------------------------------------------
 -                                                                             -
 -                           R E F E R E N C E S                               -
 -                                                                             -
 -------------------------------------------------------------------------------
 
 CP2K version 2023.1, the CP2K developers group (2023).
 CP2K is freely available from https://www.cp2k.org/ .

 Kuehne,Thomas D.; Iannuzzi,Marcella; Del Ben,Mauro;
 Rybkin,Vladimir V.; Seewald,Patrick; Stein,Frederick; Laino,Teodoro;
 Khaliullin,Rustam Z.; Schuett,Ole; Schiffmann,Florian; Golze,Dorothea;
 Wilhelm,Jan; Chulkov,Sergey; Bani-Hashemian,Mohammad Hossein;
 Weber,Valery; Borstnik,Urban; Taillefumier,Mathieu;
 Jakobovits,Alice Shoshana; Lazzaro,Alfio; Pabst,Hans; Mueller,Tiziano;
 Schade,Robert; Guidon,Manuel; Andermatt,Samuel; Holmberg,Nico;
 Schenter,Gregory K.; Hehn,Anna; Bussy,Augustin; Belleflamme,Fabian;
 Tabacchi,Gloria; Gloess,Andreas; Lass,Michael; Bethune,Iain;
 Mundy,Christopher J.; Plessl,Christian; Watkins,Matt;
 VandeVondele,Joost; Krack,Matthias; Hutter,Juerg. 
 The Journal of Chemical Physics, 152 (19), (2020). 
 CP2K: An electronic structure and molecular dynamics software package -
 Quickstep: Efficient and accurate electronic structure calculations.
 https://doi.org/10.1063/5.0007045

 Goerigk, Lars; Hansen, Andreas; Bauer, Christoph; Ehrlich, Stephan;
 Najibi, Asim; Grimme, Stefan. , 19 (48), (2017). 
 A look at the density functional theory zoo with the advanced GMTKN55 database
 for general main group thermochemistry, kinetics and noncovalent interactions.
 https://doi.org/10.1039/C7CP04913G

 Schuett, Ole; Messmer, Peter; Hutter, Juerg; VandeVondele, Joost. 
 Electronic Structure Calculations on Graphics Processing Units, John
 Wiley & Sons, Ltd, 173-190 (2016). 
 GPU-Accelerated Sparse Matrix-Matrix Multiplication for
 Linear Scaling Density Functional Theory.
 https://doi.org/10.1002/9781118670712.ch8

 Borstnik, U; VandeVondele, J; Weber, V; Hutter, J. 
 PARALLEL COMPUTING, 40 (5-6), 47-58 (2014). 
 Sparse matrix multiplication: The distributed block-compressed sparse
 row library.
 https://doi.org/10.1016/j.parco.2014.03.012

 Hutter, J; Iannuzzi, M; Schiffmann, F; VandeVondele, J. 
 WIREs Comput Mol Sci., 4 (1), 15-25 (2014). 
 CP2K: atomistic simulations of condensed matter systems.
 https://doi.org/10.1002/wcms.1159

 Marek, A; Blum, V; Johanni, R; Havu, V; Lang, B; Auckenthaler, T;
 Heinecke, A; Bungartz, H; Lederer, H. 
 Journal of Physics: Condensed Matter, 26 (21), (2014). 
 The ELPA library: scalable parallel eigenvalue solutions for
 electronic structure
 theory and computational science.
 https://doi.org/10.1088/0953-8984/26/21/213201

 Grimme, S; Ehrlich, S; Goerigk, L. 
 JOURNAL OF COMPUTATIONAL CHEMISTRY, 32, 1456 (2011). 
 Effect of the damping function in dispersion corrected density functional theory.
 https://doi.org/10.1002/jcc.21759

 Grimme, S; Antony, J; Ehrlich, S; Krieg, H. 
 JOURNAL OF CHEMICAL PHYSICS, 132 (15), 154104 (2010). 
 A consistent and accurate ab initio parametrization of density
 functional dispersion correction (DFT-D) for the 94 elements H-Pu.
 https://doi.org/10.1063/1.3382344

 VandeVondele, J; Hutter, J. 
 JOURNAL OF CHEMICAL PHYSICS, 127 (11), 114105 (2007). 
 Gaussian basis sets for accurate calculations on molecular systems in
 gas and condensed phases.
 https://doi.org/10.1063/1.2770708

 Krack, M. 
 THEORETICAL CHEMISTRY ACCOUNTS, 114 (1-3), 145-152 (2005). 
 Pseudopotentials for H to Kr optimized for gradient-corrected
 exchange-correlation functionals.
 https://doi.org/10.1007/s00214-005-0655-y

 VandeVondele, J; Krack, M; Mohamed, F; Parrinello, M; Chassaing, T;
 Hutter, J. COMPUTER PHYSICS COMMUNICATIONS, 167 (2), 103-128 (2005). 
 QUICKSTEP: Fast and accurate density functional calculations using a
 mixed Gaussian and plane waves approach.
 https://doi.org/10.1016/j.cpc.2004.12.014

 Frigo, M; Johnson, SG. 
 PROCEEDINGS OF THE IEEE, 93 (2), 216-231 (2005). 
 The design and implementation of FFTW3.
 https://doi.org/10.1109/JPROC.2004.840301

 Hartwigsen, C; Goedecker, S; Hutter, J. 
 PHYSICAL REVIEW B, 58 (7), 3641-3662 (1998). 
 Relativistic separable dual-space Gaussian pseudopotentials from H to Rn.
 https://doi.org/10.1103/PhysRevB.58.3641

 Lippert, G; Hutter, J; Parrinello, M. 
 MOLECULAR PHYSICS, 92 (3), 477-487 (1997). 
 A hybrid Gaussian and plane wave density functional scheme.
 https://doi.org/10.1080/002689797170220

 Perdew, JP; Burke, K; Ernzerhof, M. 
 PHYSICAL REVIEW LETTERS, 77 (18), 3865-3868 (1996). 
 Generalized gradient approximation made simple.
 https://doi.org/10.1103/PhysRevLett.77.3865

 Goedecker, S; Teter, M; Hutter, J. 
 PHYSICAL REVIEW B, 54 (3), 1703-1710 (1996). 
 Separable dual-space Gaussian pseudopotentials.
 https://doi.org/10.1103/PhysRevB.54.1703


 -------------------------------------------------------------------------------
 -                                                                             -
 -                                T I M I N G                                  -
 -                                                                             -
 -------------------------------------------------------------------------------
 SUBROUTINE                       CALLS  ASD         SELF TIME        TOTAL TIME
                                MAXIMUM       AVERAGE  MAXIMUM  AVERAGE  MAXIMUM
 CP2K                                 1  1.0     2.88     2.96 28412.88 28412.88
 qs_energies                          5  2.0     0.00     0.00 28389.06 28389.09
 scf_env_do_scf                       5  3.0     0.00     0.02 28310.20 28310.84
 scf_env_do_scf_inner_loop          376  4.0     0.05     0.11 28310.20 28310.83
 qs_scf_new_mos                     376  5.0     0.03     0.06 21753.17 21754.23
 eigensolver                        752  6.0     0.13     0.16 21103.98 21106.82
 cp_fm_diag_elpa                    504  7.0     0.01     0.01 17909.22 17912.93
 cp_fm_diag_elpa_base               504  8.0 17890.15 17895.85 17901.97 17902.56
 qs_ks_update_qs_env                376  5.0     0.01     0.01  3068.05  3068.78
 rebuild_ks_matrix                  376  6.0     0.01     0.01  3041.17  3041.78
 qs_ks_build_kohn_sham_matrix       376  7.0     0.16     0.20  3041.17  3041.77
 cp_fm_triangular_multiply         2256  7.0  2692.76  2706.59  2692.76  2706.59
 qs_rho_update_rho_low              381  5.0     0.01     0.02  2671.69  2672.66
 calculate_rho_elec                 762  6.0     3.74     3.94  2671.68  2672.65
 sum_up_and_integrate               376  8.0     9.86    10.73  2397.65  2398.04
 integrate_v_rspace                 752  9.0     0.07     0.08  2387.78  2388.37
 grid_collocate_task_list           762  7.0  1655.39  1711.54  1655.39  1711.54
 grid_integrate_task_list           752 10.0  1582.85  1642.63  1582.85  1642.63
 rs_pw_transfer                    6061  9.5     0.22     0.27   971.61  1047.03
 density_rs2pw                      762  7.0     0.10     0.14   975.19  1044.46
 pw_transfer                       8689  9.0     1.37     1.46   931.51   954.28
 fft_wrap_pw1pw2                   7937  9.9     0.18     0.21   921.89   944.76
 gspace_mixing                      369  5.0     3.61     3.78   819.53   819.96
 fft_wrap_pw1pw2_150               3395 10.2    43.11    44.53   783.50   804.25
 fft3d_ps                          7937 11.9   333.63   359.86   685.68   713.07
 potential_pw2rs                    752 10.0     0.32     0.38   685.44   688.03
 broyden_mixing                     369  6.0   460.63   476.03   598.19   600.36
 -------------------------------------------------------------------------------

 The number of warnings for this run is : 7
 
 -------------------------------------------------------------------------------
  **** **** ******  **  PROGRAM ENDED AT                 2025-06-04 00:22:25.787
 ***** ** ***  *** **   PROGRAM RAN ON                                sebnode133
 **    ****   ******    PROGRAM RAN BY                                    luehrs
 ***** **    ** ** **   PROGRAM PROCESS ID                               1748388
  **** **  *******  **  PROGRAM STOPPED IN /home/luehrs/PhD/Sodium_batteries/Sod
                                           ium-graphene-interlayer/AA_Interlayer
                                           /Zig_Zag_2
