 DBCSR| Multiplication driver                                               XSMM
 DBCSR| Multrec recursion limit                                              512
 DBCSR| Multiplication stack size                                           1000
 DBCSR| Maximum elements for images                                    UNLIMITED
 DBCSR| Multiplicative factor virtual images                                   1
 DBCSR| Multiplication size stacks                                             3
 DBCSR| Number of 3D layers                                               SINGLE
 DBCSR| Use MPI memory allocation                                              T
 DBCSR| Use RMA algorithm                                                      F
 DBCSR| Use Communication thread                                               T
 DBCSR| Communication thread load                                             87


  **** **** ******  **  PROGRAM STARTED AT               2024-08-12 14:27:32.187
 ***** ** ***  *** **   PROGRAM STARTED ON                            sebnode128
 **    ****   ******    PROGRAM STARTED BY                                luehrs
 ***** **    ** ** **   PROGRAM PROCESS ID                                931876
  **** **  *******  **  PROGRAM STARTED IN /home/luehrs/PhD/Sodium_batteries/Sod
                                           ium-graphene-interlayer/Zig_Zag_2

 CP2K| version string:                    CP2K version 7.0 (Development Version)
 CP2K| source code revision number:                                             
 CP2K| cp2kflags: libint fftw3 libxc parallel mpi3 scalapack xsmm libderiv_max_a
 CP2K|            m1=8 libint_max_am=9 max_contr=4
 CP2K| is freely available from                            https://www.cp2k.org/
 CP2K| Program compiled at                         Sun Jun 24 14:37:16 CEST 2018
 CP2K| Program compiled on                                            sebstorage
 CP2K| Program compiled for                                Linux-x86-64-gfortran
 CP2K| Data directory path    /home/brehm/Software_Batchnode/2018/Source/cp2k_18
 CP2K| Input file name                                         input.zig-zag.inp

 GLOBAL| Force Environment number                                              1
 GLOBAL| Basis set file name                                      ./BASIS_MOLOPT
 GLOBAL| Potential file name                                    ./GTH_POTENTIALS
 GLOBAL| MM Potential file name                                     MM_POTENTIAL
 GLOBAL| Coordinate file name           graphene_no_hydrogen_zig-zag_3.7_relaxed
 GLOBAL| Method name                                                        CP2K
 GLOBAL| Project name                               graphene_zig_zag_sodium_BSSE
 GLOBAL| Preferred FFT library                                             FFTW3
 GLOBAL| Preferred diagonalization lib.                                       SL
 GLOBAL| Run type                                                           BSSE
 GLOBAL| All-to-all communication in single precision                          F
 GLOBAL| FFTs using library dependent lengths                                  F
 GLOBAL| Global print level                                                  LOW
 GLOBAL| Total number of message passing processes                            16
 GLOBAL| Number of threads for this process                                    1
 GLOBAL| This output is from process                                           0
 GLOBAL| CPU model name :  AMD EPYC 7513 32-Core Processor

 MEMORY| system memory details [Kb]
 MEMORY|                        rank 0           min           max       average
 MEMORY| MemTotal            131901556     131901556     131901556     131901556
 MEMORY| MemFree             109180160     109180160     109180160     109180160
 MEMORY| Buffers                211592        211592        211592        211592
 MEMORY| Cached                 655672        655672        655672        655672
 MEMORY| Slab                  1298388       1298388       1298388       1298388
 MEMORY| SReclaimable           401432        401432        401432        401432
 MEMORY| MemLikelyFree       110448856     110448856     110448856     110448856


 GENERATE|  Preliminary Number of Bonds generated:                             0
 GENERATE|  Achieved consistency in connectivity generation.

 *******************************************************************************
 *******************************************************************************
 **                                                                           **
 **     #####                         ##              ##                      **
 **    ##   ##            ##          ##              ##                      **
 **   ##     ##                       ##            ######                    **
 **   ##     ##  ##   ##  ##   #####  ##  ##   ####   ##    #####    #####    **
 **   ##     ##  ##   ##  ##  ##      ## ##   ##      ##   ##   ##  ##   ##   **
 **   ##  ## ##  ##   ##  ##  ##      ####     ###    ##   ######   ######    **
 **    ##  ###   ##   ##  ##  ##      ## ##      ##   ##   ##       ##        **
 **     #######   #####   ##   #####  ##  ##  ####    ##    #####   ##        **
 **           ##                                                    ##        **
 **                                                                           **
 **                                                ... make the atoms dance   **
 **                                                                           **
 **            Copyright (C) by CP2K developers group (2000 - 2018)           **
 **                                                                           **
 *******************************************************************************


 TOTAL NUMBERS AND MAXIMUM NUMBERS

  Total number of            - Atomic kinds:                                   2
                             - Atoms:                                        225
                             - Shell sets:                                   225
                             - Shells:                                      1125
                             - Primitive Cartesian functions:               1127
                             - Cartesian basis functions:                   3145
                             - Spherical basis functions:                   2921

  Maximum angular momentum of- Orbital basis functions:                        2
                             - Local part of the GTH pseudopotential:          2
                             - Non-local part of the GTH pseudopotential:      1


 SCF PARAMETERS         Density guess:                                    ATOMIC
                        --------------------------------------------------------
                        max_scf:                                             100
                        max_scf_history:                                       0
                        max_diis:                                              4
                        --------------------------------------------------------
                        eps_scf:                                        3.00E-07
                        eps_scf_history:                                0.00E+00
                        eps_diis:                                       1.00E-01
                        eps_eigval:                                     1.00E-05
                        --------------------------------------------------------
                        level_shift [a.u.]:                                 0.00
                        added MOs                                       100  100
                        --------------------------------------------------------
                        Mixing method:                            BROYDEN_MIXING
                                                charge density mixing in g-space
                        --------------------------------------------------------
                        Smear method:                                FERMI_DIRAC
                        Electronic temperature [K]:                        300.0
                        Electronic temperature [a.u.]:                  9.50E-04
                        Accuracy threshold:                             1.00E-10
                        --------------------------------------------------------
                        Outer loop SCF in use 
                        No variables optimised in outer loop
                        eps_scf                                         1.00E-06
                        max_scf                                               30
                        DIIS optimization
                        DIIS buffer length                                     3
                        step_size                                       5.00E-01

 -------------------------------------------------------------------------------
 -                                                                             -
 -  BSSE CALCULATION         FRAGMENT CONF: 10        FRAGMENT SUBCONF: 10     -
 -                           CHARGE =     0           MULTIPLICITY =     0     -
 -                                                                             -
 -                 ATOM INDEX                              ATOM NAME           -
 -                 ----------                              ---------           -
 -                      1                                   C                  -
 -                      2                                   C                  -
 -                      3                                   C                  -
 -                      4                                   C                  -
 -                      5                                   C                  -
 -                      6                                   C                  -
 -                      7                                   C                  -
 -                      8                                   C                  -
 -                      9                                   C                  -
 -                     10                                   C                  -
 -                     11                                   C                  -
 -                     12                                   C                  -
 -                     13                                   C                  -
 -                     14                                   C                  -
 -                     15                                   C                  -
 -                     16                                   C                  -
 -                     17                                   C                  -
 -                     18                                   C                  -
 -                     19                                   C                  -
 -                     20                                   C                  -
 -                     21                                   C                  -
 -                     22                                   C                  -
 -                     23                                   C                  -
 -                     24                                   C                  -
 -                     25                                   C                  -
 -                     26                                   C                  -
 -                     27                                   C                  -
 -                     28                                   C                  -
 -                     29                                   C                  -
 -                     30                                   C                  -
 -                     31                                   C                  -
 -                     32                                   C                  -
 -                     33                                   C                  -
 -                     34                                   C                  -
 -                     35                                   C                  -
 -                     36                                   C                  -
 -                     37                                   C                  -
 -                     38                                   C                  -
 -                     39                                   C                  -
 -                     40                                   C                  -
 -                     41                                   C                  -
 -                     42                                   C                  -
 -                     43                                   C                  -
 -                     44                                   C                  -
 -                     45                                   C                  -
 -                     46                                   C                  -
 -                     47                                   C                  -
 -                     48                                   C                  -
 -                     49                                   C                  -
 -                     50                                   C                  -
 -                     51                                   C                  -
 -                     52                                   C                  -
 -                     53                                   C                  -
 -                     54                                   C                  -
 -                     55                                   C                  -
 -                     56                                   C                  -
 -                     57                                   C                  -
 -                     58                                   C                  -
 -                     59                                   C                  -
 -                     60                                   C                  -
 -                     61                                   C                  -
 -                     62                                   C                  -
 -                     63                                   C                  -
 -                     64                                   C                  -
 -                     65                                   C                  -
 -                     66                                   C                  -
 -                     67                                   C                  -
 -                     68                                   C                  -
 -                     69                                   C                  -
 -                     70                                   C                  -
 -                     71                                   C                  -
 -                     72                                   C                  -
 -                     73                                   C                  -
 -                     74                                   C                  -
 -                     75                                   C                  -
 -                     76                                   C                  -
 -                     77                                   C                  -
 -                     78                                   C                  -
 -                     79                                   C                  -
 -                     80                                   C                  -
 -                     81                                   C                  -
 -                     82                                   C                  -
 -                     83                                   C                  -
 -                     84                                   C                  -
 -                     85                                   C                  -
 -                     86                                   C                  -
 -                     87                                   C                  -
 -                     88                                   C                  -
 -                     89                                   C                  -
 -                     90                                   C                  -
 -                     91                                   C                  -
 -                     92                                   C                  -
 -                     93                                   C                  -
 -                     94                                   C                  -
 -                     95                                   C                  -
 -                     96                                   C                  -
 -                     97                                   C                  -
 -                     98                                   C                  -
 -                     99                                   C                  -
 -                    100                                   C                  -
 -                    101                                   C                  -
 -                    102                                   C                  -
 -                    103                                   C                  -
 -                    104                                   C                  -
 -                    105                                   C                  -
 -                    106                                   C                  -
 -                    107                                   C                  -
 -                    108                                   C                  -
 -                    109                                   C                  -
 -                    110                                   C                  -
 -                    111                                   C                  -
 -                    112                                   C                  -
 -                    113                                   C                  -
 -                    114                                   C                  -
 -                    115                                   C                  -
 -                    116                                   C                  -
 -                    117                                   C                  -
 -                    118                                   C                  -
 -                    119                                   C                  -
 -                    120                                   C                  -
 -                    121                                   C                  -
 -                    122                                   C                  -
 -                    123                                   C                  -
 -                    124                                   C                  -
 -                    125                                   C                  -
 -                    126                                   C                  -
 -                    127                                   C                  -
 -                    128                                   C                  -
 -                    129                                   C                  -
 -                    130                                   C                  -
 -                    131                                   C                  -
 -                    132                                   C                  -
 -                    133                                   C                  -
 -                    134                                   C                  -
 -                    135                                   C                  -
 -                    136                                   C                  -
 -                    137                                   C                  -
 -                    138                                   C                  -
 -                    139                                   C                  -
 -                    140                                   C                  -
 -                    141                                   C                  -
 -                    142                                   C                  -
 -                    143                                   C                  -
 -                    144                                   C                  -
 -                    145                                   C                  -
 -                    146                                   C                  -
 -                    147                                   C                  -
 -                    148                                   C                  -
 -                    149                                   C                  -
 -                    150                                   C                  -
 -                    151                                   C                  -
 -                    152                                   C                  -
 -                    153                                   C                  -
 -                    154                                   C                  -
 -                    155                                   C                  -
 -                    156                                   C                  -
 -                    157                                   C                  -
 -                    158                                   C                  -
 -                    159                                   C                  -
 -                    160                                   C                  -
 -                    161                                   C                  -
 -                    162                                   C                  -
 -                    163                                   C                  -
 -                    164                                   C                  -
 -                    165                                   C                  -
 -                    166                                   C                  -
 -                    167                                   C                  -
 -                    168                                   C                  -
 -                    169                                   C                  -
 -                    170                                   C                  -
 -                    171                                   C                  -
 -                    172                                   C                  -
 -                    173                                   C                  -
 -                    174                                   C                  -
 -                    175                                   C                  -
 -                    176                                   C                  -
 -                    177                                   C                  -
 -                    178                                   C                  -
 -                    179                                   C                  -
 -                    180                                   C                  -
 -                    181                                   C                  -
 -                    182                                   C                  -
 -                    183                                   C                  -
 -                    184                                   C                  -
 -                    185                                   C                  -
 -                    186                                   C                  -
 -                    187                                   C                  -
 -                    188                                   C                  -
 -                    189                                   C                  -
 -                    190                                   C                  -
 -                    191                                   C                  -
 -                    192                                   C                  -
 -                    193                                   C                  -
 -                    194                                   C                  -
 -                    195                                   C                  -
 -                    196                                   C                  -
 -                    197                                   C                  -
 -                    198                                   C                  -
 -                    199                                   C                  -
 -                    200                                   C                  -
 -                    201                                   C                  -
 -                    202                                   C                  -
 -                    203                                   C                  -
 -                    204                                   C                  -
 -                    205                                   C                  -
 -                    206                                   C                  -
 -                    207                                   C                  -
 -                    208                                   C                  -
 -                    209                                   C                  -
 -                    210                                   C                  -
 -                    211                                   C                  -
 -                    212                                   C                  -
 -                    213                                   C                  -
 -                    214                                   C                  -
 -                    215                                   C                  -
 -                    216                                   C                  -
 -                    217                                   C                  -
 -                    218                                   C                  -
 -                    219                                   C                  -
 -                    220                                   C                  -
 -                    221                                   C                  -
 -                    222                                   C                  -
 -                    223                                   C                  -
 -                    224                                   C                  -
 -------------------------------------------------------------------------------

 *******************************************************************************
 *******************************************************************************
 **                                                                           **
 **     #####                         ##              ##                      **
 **    ##   ##            ##          ##              ##                      **
 **   ##     ##                       ##            ######                    **
 **   ##     ##  ##   ##  ##   #####  ##  ##   ####   ##    #####    #####    **
 **   ##     ##  ##   ##  ##  ##      ## ##   ##      ##   ##   ##  ##   ##   **
 **   ##  ## ##  ##   ##  ##  ##      ####     ###    ##   ######   ######    **
 **    ##  ###   ##   ##  ##  ##      ## ##      ##   ##   ##       ##        **
 **     #######   #####   ##   #####  ##  ##  ####    ##    #####   ##        **
 **           ##                                                    ##        **
 **                                                                           **
 **                                                ... make the atoms dance   **
 **                                                                           **
 **            Copyright (C) by CP2K developers group (2000 - 2018)           **
 **                                                                           **
 *******************************************************************************


 TOTAL NUMBERS AND MAXIMUM NUMBERS

  Total number of            - Atomic kinds:                                   1
                             - Atoms:                                        224
                             - Shell sets:                                   224
                             - Shells:                                      1120
                             - Primitive Cartesian functions:               1120
                             - Cartesian basis functions:                   3136
                             - Spherical basis functions:                   2912

  Maximum angular momentum of- Orbital basis functions:                        2
                             - Local part of the GTH pseudopotential:          2
                             - Non-local part of the GTH pseudopotential:      0


 SCF PARAMETERS         Density guess:                                    ATOMIC
                        --------------------------------------------------------
                        max_scf:                                             100
                        max_scf_history:                                       0
                        max_diis:                                              4
                        --------------------------------------------------------
                        eps_scf:                                        3.00E-07
                        eps_scf_history:                                0.00E+00
                        eps_diis:                                       1.00E-01
                        eps_eigval:                                     1.00E-05
                        --------------------------------------------------------
                        level_shift [a.u.]:                                 0.00
                        added MOs                                       100  100
                        --------------------------------------------------------
                        Mixing method:                            BROYDEN_MIXING
                                                charge density mixing in g-space
                        --------------------------------------------------------
                        Smear method:                                FERMI_DIRAC
                        Electronic temperature [K]:                        300.0
                        Electronic temperature [a.u.]:                  9.50E-04
                        Accuracy threshold:                             1.00E-10
                        --------------------------------------------------------
                        Outer loop SCF in use 
                        No variables optimised in outer loop
                        eps_scf                                         1.00E-06
                        max_scf                                               30
                        DIIS optimization
                        DIIS buffer length                                     3
                        step_size                                       5.00E-01

 Spin 1

 Number of electrons:                                                        448
 Number of occupied orbitals:                                                448
 Number of molecular orbitals:                                               548

 Spin 2

 Number of electrons:                                                        448
 Number of occupied orbitals:                                                448
 Number of molecular orbitals:                                               548

 Number of orbital functions:                                               2912
 Number of independent orbital functions:                                   2912

 Extrapolation method: initial_guess


 SCF WAVEFUNCTION OPTIMIZATION

  Step     Update method      Time    Convergence         Total energy    Change
  ------------------------------------------------------------------------------
     1 NoMix/Diag. 0.10E+00    4.8     0.45116643     -1260.0239278527 -1.26E+03
     2 Broy./Diag. 0.10E+00    7.3     0.00159864     -1203.1505625049  5.69E+01
     3 Broy./Diag. 0.10E+00    7.6     7.55948296     -1247.7034805238 -4.46E+01
     4 Broy./Diag. 0.10E+00    7.6     7.55941933     -1115.4072094295  1.32E+02
     5 Broy./Diag. 0.10E+00    7.5     7.58171678     -1264.0210268667 -1.49E+02
     6 Broy./Diag. 0.10E+00    7.5     7.58171353     -1033.6781011764  2.30E+02
     7 Broy./Diag. 0.10E+00    7.7     7.59828293     -1264.9414883493 -2.31E+02
     8 Broy./Diag. 0.10E+00    8.1     7.59828270     -1072.1744302699  1.93E+02
     9 Broy./Diag. 0.10E+00    8.2     7.60044695     -1265.7637941734 -1.94E+02
    10 Broy./Diag. 0.10E+00    8.1     7.60044555     -1086.3429668926  1.79E+02
    11 Broy./Diag. 0.10E+00    8.1     7.59596650     -1266.1188857465 -1.80E+02
    12 Broy./Diag. 0.10E+00    8.1     7.59594441     -1113.3831237863  1.53E+02
    13 Broy./Diag. 0.10E+00    8.1     7.58526497     -1243.5660647867 -1.30E+02
    14 Broy./Diag. 0.10E+00    8.1     7.37330482     -1222.7881795965  2.08E+01
    15 Broy./Diag. 0.10E+00    8.5     7.62819092     -1266.7519932217 -4.40E+01
    16 Broy./Diag. 0.10E+00    8.5     7.62818845     -1196.4926535945  7.03E+01
    17 Broy./Diag. 0.10E+00    8.5     7.52536983     -1266.8695401776 -7.04E+01
    18 Broy./Diag. 0.10E+00    8.5     7.52561405     -1134.0532363818  1.33E+02
    19 Broy./Diag. 0.10E+00    8.6     7.44277031     -1266.9235685383 -1.33E+02
    20 Broy./Diag. 0.10E+00    8.6     7.44276802     -1219.5588244285  4.74E+01
    21 Broy./Diag. 0.10E+00    8.4     7.58799112     -1267.0755849222 -4.75E+01
    22 Broy./Diag. 0.10E+00    8.3     7.58798879     -1162.1252296544  1.05E+02
    23 Broy./Diag. 0.10E+00    8.4     6.04554372     -1267.1766918494 -1.05E+02
    24 Broy./Diag. 0.10E+00    8.7     6.04684223     -1228.6265370342  3.86E+01
    25 Broy./Diag. 0.10E+00    8.6     7.61442257     -1267.1753181900 -3.85E+01
    26 Broy./Diag. 0.10E+00    8.6     7.61442039     -1241.5354574070  2.56E+01
    27 Broy./Diag. 0.10E+00    8.8     7.57878867     -1267.3018535381 -2.58E+01
    28 Broy./Diag. 0.10E+00    8.9     7.57878631     -1243.8364124663  2.35E+01
    29 Broy./Diag. 0.10E+00    8.9     3.82427825     -1267.4044454306 -2.36E+01
    30 Broy./Diag. 0.10E+00    8.8     3.82427571     -1255.8281712544  1.16E+01
    31 Broy./Diag. 0.10E+00    8.7     0.08424110     -1267.5054709291 -1.17E+01
    32 Broy./Diag. 0.10E+00    8.7     0.07270862     -1267.4797033080  2.58E-02
    33 Broy./Diag. 0.10E+00    9.0     0.06060995     -1267.4946063989 -1.49E-02
    34 Broy./Diag. 0.10E+00    8.9     0.03450865     -1267.5200082855 -2.54E-02
    35 Broy./Diag. 0.10E+00    8.8     0.03439878     -1267.5551600652 -3.52E-02
    36 Broy./Diag. 0.10E+00    8.7     7.52023417     -1267.9407039641 -3.86E-01
    37 Broy./Diag. 0.10E+00    8.6     7.52023316     -1222.9713884220  4.50E+01
    38 Broy./Diag. 0.10E+00    8.4     0.00212948     -1268.1325340331 -4.52E+01
    39 Broy./Diag. 0.10E+00    8.4     0.00088737     -1268.3341714406 -2.02E-01
    40 Broy./Diag. 0.10E+00    8.6     0.03455921     -1268.6240460069 -2.90E-01
    41 Broy./Diag. 0.10E+00    8.5     0.00264585     -1268.7413038987 -1.17E-01
    42 Broy./Diag. 0.10E+00    8.4     0.02334966     -1268.7448744501 -3.57E-03
    43 Broy./Diag. 0.10E+00    8.2     0.03803510     -1268.6684686191  7.64E-02
    44 Broy./Diag. 0.10E+00    8.4     0.01048848     -1268.7586785401 -9.02E-02
    45 Broy./Diag. 0.10E+00    8.3     5.79443867     -1268.7998577768 -4.12E-02
    46 Broy./Diag. 0.10E+00    8.5     5.79491494     -1251.0941772079  1.77E+01
    47 Broy./Diag. 0.10E+00    8.6     0.00173689     -1268.7891841101 -1.77E+01
    48 Broy./Diag. 0.10E+00    8.4     0.00854378     -1268.8643438671 -7.52E-02
    49 Broy./Diag. 0.10E+00    8.3     0.00062452     -1268.9640876382 -9.97E-02
    50 Broy./Diag. 0.10E+00    8.5     0.00120673     -1269.0319409095 -6.79E-02
    51 Broy./Diag. 0.10E+00    8.6     0.00043311     -1269.0755706776 -4.36E-02
    52 Broy./Diag. 0.10E+00    8.8     0.00072302     -1269.1122441826 -3.67E-02
    53 Broy./Diag. 0.10E+00    8.7     0.00034276     -1269.1468484807 -3.46E-02
    54 Broy./Diag. 0.10E+00    8.4     0.00038576     -1269.1481317547 -1.28E-03
    55 Broy./Diag. 0.10E+00    8.4     0.00021242     -1269.1547211116 -6.59E-03
    56 Broy./Diag. 0.10E+00    8.6     0.00030423     -1269.1524353984  2.29E-03
    57 Broy./Diag. 0.10E+00    8.5     0.00015871     -1269.1682587752 -1.58E-02
    58 Broy./Diag. 0.10E+00    8.7     0.00017123     -1269.1762491242 -7.99E-03
    59 Broy./Diag. 0.10E+00    8.6     0.00008091     -1269.1844415555 -8.19E-03
    60 Broy./Diag. 0.10E+00    8.9     0.00003211     -1269.1898971091 -5.46E-03
    61 Broy./Diag. 0.10E+00    8.7     0.00017039     -1269.1978415338 -7.94E-03
    62 Broy./Diag. 0.10E+00    8.7     0.00002110     -1269.2009121838 -3.07E-03
    63 Broy./Diag. 0.10E+00    8.8     0.00010759     -1269.1999880455  9.24E-04
    64 Broy./Diag. 0.10E+00    9.1     0.00000842     -1269.2010909691 -1.10E-03
    65 Broy./Diag. 0.10E+00    9.3     0.00002477     -1269.2024018994 -1.31E-03
    66 Broy./Diag. 0.10E+00    9.2     0.00001429     -1269.2030677487 -6.66E-04
    67 Broy./Diag. 0.10E+00    9.1     0.00000754     -1269.2047454772 -1.68E-03
    68 Broy./Diag. 0.10E+00    8.9     0.00001048     -1269.2047648159 -1.93E-05
    69 Broy./Diag. 0.10E+00    8.6     0.00000996     -1269.2043116287  4.53E-04
    70 Broy./Diag. 0.10E+00    8.5     0.00000827     -1269.2045256699 -2.14E-04
    71 Broy./Diag. 0.10E+00    8.6     0.00000285     -1269.2056498515 -1.12E-03
    72 Broy./Diag. 0.10E+00    8.6     0.00000456     -1269.2055007493  1.49E-04
    73 Broy./Diag. 0.10E+00    8.6     0.00000284     -1269.2048160843  6.85E-04
    74 Broy./Diag. 0.10E+00    8.6     0.00000384     -1269.2045722809  2.44E-04
    75 Broy./Diag. 0.10E+00    8.4     0.00000514     -1269.2046438891 -7.16E-05
    76 Broy./Diag. 0.10E+00    8.5     0.00000070     -1269.2048110833 -1.67E-04
    77 Broy./Diag. 0.10E+00    8.4     0.00000136     -1269.2047979157  1.32E-05
    78 Broy./Diag. 0.10E+00    8.1     0.00000168     -1269.2046993113  9.86E-05
    79 Broy./Diag. 0.10E+00    8.3     0.00000137     -1269.2046913354  7.98E-06
    80 Broy./Diag. 0.10E+00    8.3     0.00000150     -1269.2046690394  2.23E-05
    81 Broy./Diag. 0.10E+00    8.3     0.00000076     -1269.2045878780  8.12E-05
    82 Broy./Diag. 0.10E+00    8.3     0.00000132     -1269.2045488069  3.91E-05
    83 Broy./Diag. 0.10E+00    8.0     0.00000053     -1269.2045929313 -4.41E-05
    84 Broy./Diag. 0.10E+00    8.0     0.00000024     -1269.2045958757 -2.94E-06

  *** SCF run converged in    84 steps ***


  Electronic density on regular grids:       -895.9999999997        0.0000000003
  Core density on regular grids:              895.9999999992       -0.0000000008
  Total charge density on r-space grids:       -0.0000000005
  Total charge density g-space grids:          -0.0000000005

  Overlap energy of the core charge distribution:               0.00003699278578
  Self energy of the core charge distribution:              -2987.04177559540722
  Core Hamiltonian energy:                                    940.85173915929727
  Hartree energy:                                            1162.97274393608677
  Exchange-correlation energy:                               -385.15792141735784
  Dispersion energy:                                           -0.82941894715119
  Electronic entropic energy:                                  -0.00000000398532
  Fermi energy:                                                -0.06562520342906

  Total energy:                                             -1269.20459587573191

  outer SCF iter =    1 RMS gradient =   0.24E-06 energy =      -1269.2045958757
  outer SCF loop converged in   1 iterations or   84 steps


  Integrated absolute spin density  :                               0.0000000000
  WARNING: S**2 computation does not yet treat fractional occupied orbitals

 *** WARNING in qs_loc_utils.F:1387 :: User requested the calculation of ***
 *** the localized wavefunction but the section LOCALIZE was not         ***
 *** specified. Localization will not be performed!                      ***


 -------------------------------------------------------------------------------
 -                                                                             -
 -  BSSE CALCULATION         FRAGMENT CONF: 01        FRAGMENT SUBCONF: 01     -
 -                           CHARGE =     0           MULTIPLICITY =     0     -
 -                                                                             -
 -                 ATOM INDEX                              ATOM NAME           -
 -                 ----------                              ---------           -
 -                    225                                   Na                 -
 -------------------------------------------------------------------------------

 *******************************************************************************
 *******************************************************************************
 **                                                                           **
 **     #####                         ##              ##                      **
 **    ##   ##            ##          ##              ##                      **
 **   ##     ##                       ##            ######                    **
 **   ##     ##  ##   ##  ##   #####  ##  ##   ####   ##    #####    #####    **
 **   ##     ##  ##   ##  ##  ##      ## ##   ##      ##   ##   ##  ##   ##   **
 **   ##  ## ##  ##   ##  ##  ##      ####     ###    ##   ######   ######    **
 **    ##  ###   ##   ##  ##  ##      ## ##      ##   ##   ##       ##        **
 **     #######   #####   ##   #####  ##  ##  ####    ##    #####   ##        **
 **           ##                                                    ##        **
 **                                                                           **
 **                                                ... make the atoms dance   **
 **                                                                           **
 **            Copyright (C) by CP2K developers group (2000 - 2018)           **
 **                                                                           **
 *******************************************************************************

 *** WARNING in qs_environment.F:1128 :: More added MOs requested for beta ***
 *** spin than available.                                                  ***


 *** WARNING in qs_environment.F:1142 :: More added MOs requested than ***
 *** available. The full set of unoccupied MOs will be used.           ***



 TOTAL NUMBERS AND MAXIMUM NUMBERS

  Total number of            - Atomic kinds:                                   1
                             - Atoms:                                          1
                             - Shell sets:                                     1
                             - Shells:                                         5
                             - Primitive Cartesian functions:                  7
                             - Cartesian basis functions:                      9
                             - Spherical basis functions:                      9

  Maximum angular momentum of- Orbital basis functions:                        1
                             - Local part of the GTH pseudopotential:          2
                             - Non-local part of the GTH pseudopotential:      1


 SCF PARAMETERS         Density guess:                                    ATOMIC
                        --------------------------------------------------------
                        max_scf:                                             100
                        max_scf_history:                                       0
                        max_diis:                                              4
                        --------------------------------------------------------
                        eps_scf:                                        3.00E-07
                        eps_scf_history:                                0.00E+00
                        eps_diis:                                       1.00E-01
                        eps_eigval:                                     1.00E-05
                        --------------------------------------------------------
                        level_shift [a.u.]:                                 0.00
                        added MOs                                         4    5
                        --------------------------------------------------------
                        Mixing method:                            BROYDEN_MIXING
                                                charge density mixing in g-space
                        --------------------------------------------------------
                        Smear method:                                FERMI_DIRAC
                        Electronic temperature [K]:                        300.0
                        Electronic temperature [a.u.]:                  9.50E-04
                        Accuracy threshold:                             1.00E-10
                        --------------------------------------------------------
                        Outer loop SCF in use 
                        No variables optimised in outer loop
                        eps_scf                                         1.00E-06
                        max_scf                                               30
                        DIIS optimization
                        DIIS buffer length                                     3
                        step_size                                       5.00E-01

 Spin 1

 Number of electrons:                                                          5
 Number of occupied orbitals:                                                  5
 Number of molecular orbitals:                                                 9

 Spin 2

 Number of electrons:                                                          4
 Number of occupied orbitals:                                                  4
 Number of molecular orbitals:                                                 9

 Number of orbital functions:                                                  9
 Number of independent orbital functions:                                      9

 Extrapolation method: initial_guess


 SCF WAVEFUNCTION OPTIMIZATION

  Step     Update method      Time    Convergence         Total energy    Change
  ------------------------------------------------------------------------------
     1 NoMix/Diag. 0.10E+00    0.8     0.36442452       -47.1688945398 -4.72E+01
     2 Broy./Diag. 0.10E+00    1.8     0.01252691       -47.1413088969  2.76E-02
     3 Broy./Diag. 0.10E+00    2.0     0.06977261       -47.1651279189 -2.38E-02
     4 Broy./Diag. 0.10E+00    2.4     0.00159346       -47.1488108620  1.63E-02
     5 Broy./Diag. 0.10E+00    1.9     0.00346111       -47.1596182706 -1.08E-02
     6 Broy./Diag. 0.10E+00    1.8     0.00092143       -47.1535345550  6.08E-03
     7 Broy./Diag. 0.10E+00    2.0     0.01208721       -47.1605714502 -7.04E-03
     8 Broy./Diag. 0.10E+00    2.2     0.00143596       -47.1658412675 -5.27E-03
     9 Broy./Diag. 0.10E+00    2.7     0.00394677       -47.1638655812  1.98E-03
    10 Broy./Diag. 0.10E+00    2.0     0.00349428       -47.1669975862 -3.13E-03
    11 Broy./Diag. 0.10E+00    2.1     0.00097441       -47.1709814001 -3.98E-03
    12 Broy./Diag. 0.10E+00    2.2     0.00169536       -47.1665755126  4.41E-03
    13 Broy./Diag. 0.10E+00    3.1     0.00114684       -47.1716152886 -5.04E-03
    14 Broy./Diag. 0.10E+00    2.1     0.00139546       -47.1690891261  2.53E-03
    15 Broy./Diag. 0.10E+00    2.1     0.00036346       -47.1713542907 -2.27E-03
    16 Broy./Diag. 0.10E+00    2.2     0.00033641       -47.1767218380 -5.37E-03
    17 Broy./Diag. 0.10E+00    2.5     0.00038431       -47.1798797873 -3.16E-03
    18 Broy./Diag. 0.10E+00    2.7     0.00007305       -47.1759646057  3.92E-03
    19 Broy./Diag. 0.10E+00    2.1     0.00021337       -47.1655694927  1.04E-02
    20 Broy./Diag. 0.10E+00    2.1     0.00018869       -47.1603300886  5.24E-03
    21 Broy./Diag. 0.10E+00    2.2     0.00013695       -47.1627947509 -2.46E-03
    22 Broy./Diag. 0.10E+00    3.2     0.00006540       -47.1630820508 -2.87E-04
    23 Broy./Diag. 0.10E+00    2.1     0.00020533       -47.1632808386 -1.99E-04
    24 Broy./Diag. 0.10E+00    2.2     0.00010283       -47.1637501729 -4.69E-04
    25 Broy./Diag. 0.10E+00    2.1     0.00016626       -47.1634756167  2.75E-04
    26 Broy./Diag. 0.10E+00    2.7     0.00006971       -47.1619103324  1.57E-03
    27 Broy./Diag. 0.10E+00    2.5     0.00008857       -47.1632921102 -1.38E-03
    28 Broy./Diag. 0.10E+00    2.1     0.00010805       -47.1625396719  7.52E-04
    29 Broy./Diag. 0.10E+00    2.1     0.00011622       -47.1607813265  1.76E-03
    30 Broy./Diag. 0.10E+00    2.4     0.00004649       -47.1598058334  9.75E-04
    31 Broy./Diag. 0.10E+00    3.1     0.00006829       -47.1600060548 -2.00E-04
    32 Broy./Diag. 0.10E+00    2.1     0.00004454       -47.1598278884  1.78E-04
    33 Broy./Diag. 0.10E+00    2.1     0.00002684       -47.1592265408  6.01E-04
    34 Broy./Diag. 0.10E+00    2.1     0.00007825       -47.1596297962 -4.03E-04
    35 Broy./Diag. 0.10E+00    3.0     0.00001524       -47.1597773753 -1.48E-04
    36 Broy./Diag. 0.10E+00    2.4     0.00001380       -47.1592864892  4.91E-04
    37 Broy./Diag. 0.10E+00    2.1     0.00000901       -47.1594990892 -2.13E-04
    38 Broy./Diag. 0.10E+00    2.2     0.00003073       -47.1596875277 -1.88E-04
    39 Broy./Diag. 0.10E+00    2.4     0.00001238       -47.1599498627 -2.62E-04
    40 Broy./Diag. 0.10E+00    3.1     0.00001083       -47.1596754057  2.74E-04
    41 Broy./Diag. 0.10E+00    2.0     0.00000217       -47.1595164111  1.59E-04
    42 Broy./Diag. 0.10E+00    2.1     0.00000590       -47.1594998684  1.65E-05
    43 Broy./Diag. 0.10E+00    2.1     0.00000601       -47.1596099239 -1.10E-04
    44 Broy./Diag. 0.10E+00    3.1     0.00000549       -47.1595587482  5.12E-05
    45 Broy./Diag. 0.10E+00    2.3     0.00005227       -47.1594993474  5.94E-05
    46 Broy./Diag. 0.10E+00    2.1     0.00000987       -47.1595527648 -5.34E-05
    47 Broy./Diag. 0.10E+00    2.2     0.00000140       -47.1595310798  2.17E-05
    48 Broy./Diag. 0.10E+00    2.4     0.00001093       -47.1595610344 -3.00E-05
    49 Broy./Diag. 0.10E+00    3.0     0.00000157       -47.1594713894  8.96E-05
    50 Broy./Diag. 0.10E+00    2.0     0.00000323       -47.1594517619  1.96E-05
    51 Broy./Diag. 0.10E+00    2.1     0.00000274       -47.1594712470 -1.95E-05
    52 Broy./Diag. 0.10E+00    2.2     0.00000151       -47.1594899439 -1.87E-05
    53 Broy./Diag. 0.10E+00    3.1     0.00000497       -47.1595114006 -2.15E-05
    54 Broy./Diag. 0.10E+00    2.3     0.00000037       -47.1595113645  3.61E-08
    55 Broy./Diag. 0.10E+00    2.1     0.00000397       -47.1594949560  1.64E-05
    56 Broy./Diag. 0.10E+00    2.2     0.00000322       -47.1595030131 -8.06E-06
    57 Broy./Diag. 0.10E+00    2.5     0.00000087       -47.1595079377 -4.92E-06
    58 Broy./Diag. 0.10E+00    2.9     0.00000087       -47.1595085589 -6.21E-07
    59 Broy./Diag. 0.10E+00    2.0     0.00000094       -47.1595033563  5.20E-06
    60 Broy./Diag. 0.10E+00    2.1     0.00000110       -47.1594983054  5.05E-06
    61 Broy./Diag. 0.10E+00    2.2     0.00000039       -47.1595085544 -1.02E-05
    62 Broy./Diag. 0.10E+00    2.6     0.00000083       -47.1595005776  7.98E-06
    63 Broy./Diag. 0.10E+00    2.5     0.00000073       -47.1595008888 -3.11E-07
    64 Broy./Diag. 0.10E+00    2.1     0.00000033       -47.1595025667 -1.68E-06
    65 Broy./Diag. 0.10E+00    2.2     0.00000030       -47.1595004833  2.08E-06

  *** SCF run converged in    65 steps ***


  Electronic density on regular grids:         -9.0001395904       -0.0001395904
  Core density on regular grids:                9.0000000000       -0.0000000000
  Total charge density on r-space grids:       -0.0001395904
  Total charge density g-space grids:          -0.0001395904

  Overlap energy of the core charge distribution:               0.00000000000000
  Self energy of the core charge distribution:                -96.60649019442629
  Core Hamiltonian energy:                                     29.74711341095372
  Hartree energy:                                              26.74360195852800
  Exchange-correlation energy:                                 -7.04372247936166
  Dispersion energy:                                           -0.00000317792349
  Electronic entropic energy:                                  -0.00000000103916
  Fermi energy:                                                -0.08399588332947

  Total energy:                                               -47.15950048327104

  outer SCF iter =    1 RMS gradient =   0.30E-06 energy =        -47.1595004833
  outer SCF loop converged in   1 iterations or   65 steps


  Integrated absolute spin density  :                               1.0000151222
  WARNING: S**2 computation does not yet treat fractional occupied orbitals

 *** WARNING in qs_loc_utils.F:1387 :: User requested the calculation of ***
 *** the localized wavefunction but the section LOCALIZE was not         ***
 *** specified. Localization will not be performed!                      ***


 -------------------------------------------------------------------------------
 -                                                                             -
 -  BSSE CALCULATION         FRAGMENT CONF: 11        FRAGMENT SUBCONF: 10     -
 -                           CHARGE =     0           MULTIPLICITY =     0     -
 -                                                                             -
 -                 ATOM INDEX                              ATOM NAME           -
 -                 ----------                              ---------           -
 -                      1                                   C                  -
 -                      2                                   C                  -
 -                      3                                   C                  -
 -                      4                                   C                  -
 -                      5                                   C                  -
 -                      6                                   C                  -
 -                      7                                   C                  -
 -                      8                                   C                  -
 -                      9                                   C                  -
 -                     10                                   C                  -
 -                     11                                   C                  -
 -                     12                                   C                  -
 -                     13                                   C                  -
 -                     14                                   C                  -
 -                     15                                   C                  -
 -                     16                                   C                  -
 -                     17                                   C                  -
 -                     18                                   C                  -
 -                     19                                   C                  -
 -                     20                                   C                  -
 -                     21                                   C                  -
 -                     22                                   C                  -
 -                     23                                   C                  -
 -                     24                                   C                  -
 -                     25                                   C                  -
 -                     26                                   C                  -
 -                     27                                   C                  -
 -                     28                                   C                  -
 -                     29                                   C                  -
 -                     30                                   C                  -
 -                     31                                   C                  -
 -                     32                                   C                  -
 -                     33                                   C                  -
 -                     34                                   C                  -
 -                     35                                   C                  -
 -                     36                                   C                  -
 -                     37                                   C                  -
 -                     38                                   C                  -
 -                     39                                   C                  -
 -                     40                                   C                  -
 -                     41                                   C                  -
 -                     42                                   C                  -
 -                     43                                   C                  -
 -                     44                                   C                  -
 -                     45                                   C                  -
 -                     46                                   C                  -
 -                     47                                   C                  -
 -                     48                                   C                  -
 -                     49                                   C                  -
 -                     50                                   C                  -
 -                     51                                   C                  -
 -                     52                                   C                  -
 -                     53                                   C                  -
 -                     54                                   C                  -
 -                     55                                   C                  -
 -                     56                                   C                  -
 -                     57                                   C                  -
 -                     58                                   C                  -
 -                     59                                   C                  -
 -                     60                                   C                  -
 -                     61                                   C                  -
 -                     62                                   C                  -
 -                     63                                   C                  -
 -                     64                                   C                  -
 -                     65                                   C                  -
 -                     66                                   C                  -
 -                     67                                   C                  -
 -                     68                                   C                  -
 -                     69                                   C                  -
 -                     70                                   C                  -
 -                     71                                   C                  -
 -                     72                                   C                  -
 -                     73                                   C                  -
 -                     74                                   C                  -
 -                     75                                   C                  -
 -                     76                                   C                  -
 -                     77                                   C                  -
 -                     78                                   C                  -
 -                     79                                   C                  -
 -                     80                                   C                  -
 -                     81                                   C                  -
 -                     82                                   C                  -
 -                     83                                   C                  -
 -                     84                                   C                  -
 -                     85                                   C                  -
 -                     86                                   C                  -
 -                     87                                   C                  -
 -                     88                                   C                  -
 -                     89                                   C                  -
 -                     90                                   C                  -
 -                     91                                   C                  -
 -                     92                                   C                  -
 -                     93                                   C                  -
 -                     94                                   C                  -
 -                     95                                   C                  -
 -                     96                                   C                  -
 -                     97                                   C                  -
 -                     98                                   C                  -
 -                     99                                   C                  -
 -                    100                                   C                  -
 -                    101                                   C                  -
 -                    102                                   C                  -
 -                    103                                   C                  -
 -                    104                                   C                  -
 -                    105                                   C                  -
 -                    106                                   C                  -
 -                    107                                   C                  -
 -                    108                                   C                  -
 -                    109                                   C                  -
 -                    110                                   C                  -
 -                    111                                   C                  -
 -                    112                                   C                  -
 -                    113                                   C                  -
 -                    114                                   C                  -
 -                    115                                   C                  -
 -                    116                                   C                  -
 -                    117                                   C                  -
 -                    118                                   C                  -
 -                    119                                   C                  -
 -                    120                                   C                  -
 -                    121                                   C                  -
 -                    122                                   C                  -
 -                    123                                   C                  -
 -                    124                                   C                  -
 -                    125                                   C                  -
 -                    126                                   C                  -
 -                    127                                   C                  -
 -                    128                                   C                  -
 -                    129                                   C                  -
 -                    130                                   C                  -
 -                    131                                   C                  -
 -                    132                                   C                  -
 -                    133                                   C                  -
 -                    134                                   C                  -
 -                    135                                   C                  -
 -                    136                                   C                  -
 -                    137                                   C                  -
 -                    138                                   C                  -
 -                    139                                   C                  -
 -                    140                                   C                  -
 -                    141                                   C                  -
 -                    142                                   C                  -
 -                    143                                   C                  -
 -                    144                                   C                  -
 -                    145                                   C                  -
 -                    146                                   C                  -
 -                    147                                   C                  -
 -                    148                                   C                  -
 -                    149                                   C                  -
 -                    150                                   C                  -
 -                    151                                   C                  -
 -                    152                                   C                  -
 -                    153                                   C                  -
 -                    154                                   C                  -
 -                    155                                   C                  -
 -                    156                                   C                  -
 -                    157                                   C                  -
 -                    158                                   C                  -
 -                    159                                   C                  -
 -                    160                                   C                  -
 -                    161                                   C                  -
 -                    162                                   C                  -
 -                    163                                   C                  -
 -                    164                                   C                  -
 -                    165                                   C                  -
 -                    166                                   C                  -
 -                    167                                   C                  -
 -                    168                                   C                  -
 -                    169                                   C                  -
 -                    170                                   C                  -
 -                    171                                   C                  -
 -                    172                                   C                  -
 -                    173                                   C                  -
 -                    174                                   C                  -
 -                    175                                   C                  -
 -                    176                                   C                  -
 -                    177                                   C                  -
 -                    178                                   C                  -
 -                    179                                   C                  -
 -                    180                                   C                  -
 -                    181                                   C                  -
 -                    182                                   C                  -
 -                    183                                   C                  -
 -                    184                                   C                  -
 -                    185                                   C                  -
 -                    186                                   C                  -
 -                    187                                   C                  -
 -                    188                                   C                  -
 -                    189                                   C                  -
 -                    190                                   C                  -
 -                    191                                   C                  -
 -                    192                                   C                  -
 -                    193                                   C                  -
 -                    194                                   C                  -
 -                    195                                   C                  -
 -                    196                                   C                  -
 -                    197                                   C                  -
 -                    198                                   C                  -
 -                    199                                   C                  -
 -                    200                                   C                  -
 -                    201                                   C                  -
 -                    202                                   C                  -
 -                    203                                   C                  -
 -                    204                                   C                  -
 -                    205                                   C                  -
 -                    206                                   C                  -
 -                    207                                   C                  -
 -                    208                                   C                  -
 -                    209                                   C                  -
 -                    210                                   C                  -
 -                    211                                   C                  -
 -                    212                                   C                  -
 -                    213                                   C                  -
 -                    214                                   C                  -
 -                    215                                   C                  -
 -                    216                                   C                  -
 -                    217                                   C                  -
 -                    218                                   C                  -
 -                    219                                   C                  -
 -                    220                                   C                  -
 -                    221                                   C                  -
 -                    222                                   C                  -
 -                    223                                   C                  -
 -                    224                                   C                  -
 -                    225                                   Na_ghost           -
 -------------------------------------------------------------------------------

 *******************************************************************************
 *******************************************************************************
 **                                                                           **
 **     #####                         ##              ##                      **
 **    ##   ##            ##          ##              ##                      **
 **   ##     ##                       ##            ######                    **
 **   ##     ##  ##   ##  ##   #####  ##  ##   ####   ##    #####    #####    **
 **   ##     ##  ##   ##  ##  ##      ## ##   ##      ##   ##   ##  ##   ##   **
 **   ##  ## ##  ##   ##  ##  ##      ####     ###    ##   ######   ######    **
 **    ##  ###   ##   ##  ##  ##      ## ##      ##   ##   ##       ##        **
 **     #######   #####   ##   #####  ##  ##  ####    ##    #####   ##        **
 **           ##                                                    ##        **
 **                                                                           **
 **                                                ... make the atoms dance   **
 **                                                                           **
 **            Copyright (C) by CP2K developers group (2000 - 2018)           **
 **                                                                           **
 *******************************************************************************


 TOTAL NUMBERS AND MAXIMUM NUMBERS

  Total number of            - Atomic kinds:                                   2
                             - Atoms:                                        225
                             - Shell sets:                                   225
                             - Shells:                                      1125
                             - Primitive Cartesian functions:               1127
                             - Cartesian basis functions:                   3145
                             - Spherical basis functions:                   2921

  Maximum angular momentum of- Orbital basis functions:                        2
                             - Local part of the GTH pseudopotential:          2
                             - Non-local part of the GTH pseudopotential:      0


 SCF PARAMETERS         Density guess:                                    ATOMIC
                        --------------------------------------------------------
                        max_scf:                                             100
                        max_scf_history:                                       0
                        max_diis:                                              4
                        --------------------------------------------------------
                        eps_scf:                                        3.00E-07
                        eps_scf_history:                                0.00E+00
                        eps_diis:                                       1.00E-01
                        eps_eigval:                                     1.00E-05
                        --------------------------------------------------------
                        level_shift [a.u.]:                                 0.00
                        added MOs                                       100  100
                        --------------------------------------------------------
                        Mixing method:                            BROYDEN_MIXING
                                                charge density mixing in g-space
                        --------------------------------------------------------
                        Smear method:                                FERMI_DIRAC
                        Electronic temperature [K]:                        300.0
                        Electronic temperature [a.u.]:                  9.50E-04
                        Accuracy threshold:                             1.00E-10
                        --------------------------------------------------------
                        Outer loop SCF in use 
                        No variables optimised in outer loop
                        eps_scf                                         1.00E-06
                        max_scf                                               30
                        DIIS optimization
                        DIIS buffer length                                     3
                        step_size                                       5.00E-01

 Spin 1

 Number of electrons:                                                        448
 Number of occupied orbitals:                                                448
 Number of molecular orbitals:                                               548

 Spin 2

 Number of electrons:                                                        448
 Number of occupied orbitals:                                                448
 Number of molecular orbitals:                                               548

 Number of orbital functions:                                               2921
 Number of independent orbital functions:                                   2921

 Extrapolation method: initial_guess


 SCF WAVEFUNCTION OPTIMIZATION

  Step     Update method      Time    Convergence         Total energy    Change
  ------------------------------------------------------------------------------
     1 NoMix/Diag. 0.10E+00    5.0     0.45108156     -1260.0239278527 -1.26E+03
     2 Broy./Diag. 0.10E+00    7.8     0.00159951     -1203.1373593351  5.69E+01
     3 Broy./Diag. 0.10E+00    8.0     7.56230883     -1247.6786903287 -4.45E+01
     4 Broy./Diag. 0.10E+00    8.3     7.56224531     -1115.7369503007  1.32E+02
     5 Broy./Diag. 0.10E+00    8.2     7.59213029     -1264.0145213315 -1.48E+02
     6 Broy./Diag. 0.10E+00    7.8     7.59212710     -1033.8195922508  2.30E+02
     7 Broy./Diag. 0.10E+00    8.1     7.60847687     -1264.9315313158 -2.31E+02
     8 Broy./Diag. 0.10E+00    8.1     7.60847639     -1072.6112144785  1.92E+02
[...]
    42 Broy./Diag. 0.10E+00    8.2     0.00108457     -1316.3329796819 -1.23E-03
    43 Broy./Diag. 0.10E+00    8.4     0.00198992     -1316.3570106468 -2.40E-02
    44 Broy./Diag. 0.10E+00    8.7     0.00240404     -1316.3695102167 -1.25E-02
    45 Broy./Diag. 0.10E+00    8.9     0.00062886     -1316.3682922906  1.22E-03
    46 Broy./Diag. 0.10E+00    8.5     0.00071397     -1316.3567637231  1.15E-02
    47 Broy./Diag. 0.10E+00    8.5     0.00046315     -1316.3567501471  1.36E-05
    48 Broy./Diag. 0.10E+00    8.4     0.00053779     -1316.3591390726 -2.39E-03
    49 Broy./Diag. 0.10E+00    8.5     0.00013726     -1316.3799662922 -2.08E-02
    50 Broy./Diag. 0.10E+00    8.4     0.00012604     -1316.3859757456 -6.01E-03
    51 Broy./Diag. 0.10E+00    8.6     0.00007174     -1316.3847289080  1.25E-03
    52 Broy./Diag. 0.10E+00    8.5     0.00006932     -1316.3812870322  3.44E-03
    53 Broy./Diag. 0.10E+00    8.5     0.00007228     -1316.3891349696 -7.85E-03
    54 Broy./Diag. 0.10E+00    8.3     0.00003578     -1316.3980224017 -8.89E-03
    55 Broy./Diag. 0.10E+00    8.2     0.00014068     -1316.3985228794 -5.00E-04
    56 Broy./Diag. 0.10E+00    8.2     0.00001788     -1316.3995962223 -1.07E-03
    57 Broy./Diag. 0.10E+00    8.2     0.00009834     -1316.3995788253  1.74E-05
    58 Broy./Diag. 0.10E+00    8.2     0.00002592     -1316.4014586443 -1.88E-03
    59 Broy./Diag. 0.10E+00    8.3     0.00002203     -1316.4026365350 -1.18E-03
    60 Broy./Diag. 0.10E+00    8.4     0.00000764     -1316.4035275351 -8.91E-04
    61 Broy./Diag. 0.10E+00    8.4     0.00001001     -1316.4036253245 -9.78E-05
    62 Broy./Diag. 0.10E+00    8.4     0.00002922     -1316.4044129151 -7.88E-04
    63 Broy./Diag. 0.10E+00    8.2     0.00000847     -1316.4053571269 -9.44E-04
    64 Broy./Diag. 0.10E+00    8.3     0.00000868     -1316.4054388764 -8.17E-05
    65 Broy./Diag. 0.10E+00    8.5     0.00000594     -1316.4053418168  9.71E-05
    66 Broy./Diag. 0.10E+00    8.7     0.00000694     -1316.4054677270 -1.26E-04
    67 Broy./Diag. 0.10E+00    8.5     0.00000344     -1316.4058648390 -3.97E-04
    68 Broy./Diag. 0.10E+00    8.4     0.00000202     -1316.4058234438  4.14E-05
    69 Broy./Diag. 0.10E+00    8.4     0.00000382     -1316.4058140747  9.37E-06
    70 Broy./Diag. 0.10E+00    7.7     0.00000145     -1316.4057719292  4.21E-05
    71 Broy./Diag. 0.10E+00    7.7     0.00000132     -1316.4056825374  8.94E-05
    72 Broy./Diag. 0.10E+00    7.7     0.00000243     -1316.4055590096  1.24E-04
    73 Broy./Diag. 0.10E+00    7.8     0.00000129     -1316.4054974836  6.15E-05
    74 Broy./Diag. 0.10E+00    8.0     0.00000172     -1316.4054615008  3.60E-05
    75 Broy./Diag. 0.10E+00    8.1     0.00000164     -1316.4053463426  1.15E-04
    76 Broy./Diag. 0.10E+00    7.9     0.00000240     -1316.4052653562  8.10E-05
    77 Broy./Diag. 0.10E+00    7.8     0.00000081     -1316.4052445879  2.08E-05
    78 Broy./Diag. 0.10E+00    8.0     0.00000075     -1316.4052376513  6.94E-06
    79 Broy./Diag. 0.10E+00    8.0     0.00000101     -1316.4052065797  3.11E-05
    80 Broy./Diag. 0.10E+00    8.3     0.00000112     -1316.4051860205  2.06E-05
    81 Broy./Diag. 0.10E+00    7.6     0.00000030     -1316.4051710502  1.50E-05
    82 Broy./Diag. 0.10E+00    7.7     0.00000041     -1316.4051575734  1.35E-05
    83 Broy./Diag. 0.10E+00    7.6     0.00000026     -1316.4051272377  3.03E-05

  *** SCF run converged in    83 steps ***


  Electronic density on regular grids:       -905.0001412386       -0.0001412386
  Core density on regular grids:              904.9999999992       -0.0000000008
  Total charge density on r-space grids:       -0.0001412394
  Total charge density g-space grids:          -0.0001412394

  Overlap energy of the core charge distribution:               0.00003699278578
  Self energy of the core charge distribution:              -3083.64826578983366
  Core Hamiltonian energy:                                    971.21705881681123
  Hartree energy:                                            1189.35063737419341
  Exchange-correlation energy:                               -392.47836427367992
  Dispersion energy:                                           -0.84410134333159
  Electronic entropic energy:                                  -0.00212901468656
  Fermi energy:                                                -0.04993487186465

  Total energy:                                             -1316.40512723766983

  outer SCF iter =    1 RMS gradient =   0.26E-06 energy =      -1316.4051272377
  outer SCF loop converged in   1 iterations or   83 steps


  Integrated absolute spin density  :                               0.0000097544
  WARNING: S**2 computation does not yet treat fractional occupied orbitals

 *** WARNING in qs_loc_utils.F:1387 :: User requested the calculation of ***
 *** the localized wavefunction but the section LOCALIZE was not         ***
 *** specified. Localization will not be performed!                      ***


 -------------------------------------------------------------------------------
 -                                                                             -
 -                                 BSSE RESULTS                                -
 -                                                                             -
 -                 CP-corrected Total energy:    -1316.400553                  -
 -                                                                             -
 -                       1-body contribution:    -1269.204596                  -
 -                       1-body contribution:      -47.159500                  -
 -                                                                             -
 -                       2-body contribution:       -0.036457                  -
 -                 BSSE-free interaction energy:       -0.036457               -
 -------------------------------------------------------------------------------

 -------------------------------------------------------------------------------
 -                                                                             -
 -                                DBCSR STATISTICS                             -
 -                                                                             -
 -------------------------------------------------------------------------------
 COUNTER                                    TOTAL       BLAS       SMM       ACC
 flops     9 x     9 x     8               125712       0.0%    100.0%      0.0%
 flops     9 x     9 x     9               330966       0.0%    100.0%      0.0%
 flops     9 x     9 x   136              1828656       0.0%    100.0%      0.0%
 flops     9 x     9 x   137              1842102       0.0%    100.0%      0.0%
 flops     9 x     9 x    32              3017088       0.0%    100.0%      0.0%
 flops     9 x     9 x   132              3250368       0.0%    100.0%      0.0%
 flops     9 x     9 x   160              8242560       0.0%    100.0%      0.0%
 flops     9 x     9 x   128             13188096       0.0%    100.0%      0.0%
 flops     9 x    13 x     8             20337408       0.0%    100.0%      0.0%
 flops    13 x     9 x     8             20337408       0.0%    100.0%      0.0%
 flops     9 x    13 x     9             22879584       0.0%    100.0%      0.0%
 flops    13 x     9 x     9             22879584       0.0%    100.0%      0.0%
 flops     9 x    13 x   136            295835904       0.0%    100.0%      0.0%
 flops    13 x     9 x   136            295835904       0.0%    100.0%      0.0%
 flops     9 x    13 x   137            298011168       0.0%    100.0%      0.0%
 flops    13 x     9 x   137            298011168       0.0%    100.0%      0.0%
 flops     9 x    13 x    32            488097792       0.0%    100.0%      0.0%
 flops    13 x     9 x    32            488097792       0.0%    100.0%      0.0%
 flops     9 x    13 x   132            525837312       0.0%    100.0%      0.0%
 flops    13 x     9 x   132            525837312       0.0%    100.0%      0.0%
 flops     9 x    13 x   160           1333463040       0.0%    100.0%      0.0%
 flops    13 x     9 x   160           1333463040       0.0%    100.0%      0.0%
 flops     9 x    13 x   128           2133540864       0.0%    100.0%      0.0%
 flops    13 x     9 x   128           2133540864       0.0%    100.0%      0.0%
 flops    13 x    13 x     8           6609657600       0.0%    100.0%      0.0%
 flops    13 x    13 x     9           7435864800       0.0%    100.0%      0.0%
 flops    13 x    13 x   136          96146668800       0.0%    100.0%      0.0%
 flops    13 x    13 x   137          96853629600       0.0%    100.0%      0.0%
 flops    13 x    13 x    32         158631782400       0.0%    100.0%      0.0%
 flops    13 x    13 x   132         359783424000       0.0%    100.0%      0.0%
 flops    13 x    13 x   160         662328576000       0.0%    100.0%      0.0%
 flops    13 x    13 x   128        1059725721600       0.0%    100.0%      0.0%
 flops inhomo. stacks                           0       0.0%      0.0%      0.0%
 flops total                         2.457783E+12       0.0%    100.0%      0.0%
 flops max/rank                    157.599941E+09       0.0%    100.0%      0.0%
 matmuls inhomo. stacks                         0       0.0%      0.0%      0.0%
 matmuls total                           69004930       0.0%    100.0%      0.0%
 number of processed stacks                103554       0.0%    100.0%      0.0%
 average stack size                                     0.0     666.4       0.0
 marketing flops                     3.758074E+12
 -------------------------------------------------------------------------------
 # multiplications                            810
 max memory usage/rank               1.241694E+09
 # max total images/rank                        1
 # max 3D layers                                1
 # MPI messages exchanged                   77760
 MPI messages size (bytes):
  total size                        40.249262E+09
  min size                           0.000000E+00
  max size                         943.360000E+03
  average size                     517.608812E+03
 MPI breakdown and total messages size (bytes):
             size <=      128               11700                        0
       128 < size <=     8192                 780                   505440
      8192 < size <=    32768                   0                        0
     32768 < size <=   131072                4656                231202992
    131072 < size <=  4194304               60624              40017513744
   4194304 < size <= 16777216                   0                        0
  16777216 < size                               0                        0
 -------------------------------------------------------------------------------

 MEMORY| Estimated peak process memory [MiB]                                1185

 -------------------------------------------------------------------------------
 -                                                                             -
 -                         MESSAGE PASSING PERFORMANCE                         -
 -                                                                             -
 -------------------------------------------------------------------------------

 ROUTINE             CALLS      AVE VOLUME [Bytes]
 MP_Group              844
 MP_Bcast              717                1350328.
 MP_Allreduce        13302                    537.
 MP_Sync               154
 MP_Alltoall         32987                7613300.
 MP_SendRecv          9720                 491520.
 MP_ISendRecv        69420                 509134.
 MP_Wait            129953
 MP_comm_split         130
 MP_ISend            28660                1790909.
 MP_IRecv            28660                1782864.
 MP_Recv               494                 715012.
 MP_Memory           63436
 -------------------------------------------------------------------------------


 -------------------------------------------------------------------------------
 -                                                                             -
 -                           R E F E R E N C E S                               -
 -                                                                             -
 -------------------------------------------------------------------------------
 
 CP2K version 7.0 (Development Version), the CP2K developers group (2018).
 CP2K is freely available from https://www.cp2k.org/ .

 Schuett, Ole; Messmer, Peter; Hutter, Juerg; VandeVondele, Joost. 
 Electronic Structure Calculations on Graphics Processing Units, John Wiley & Sons, Ltd, 173-190 (2016). 
 GPU-Accelerated Sparse Matrix-Matrix Multiplication for Linear Scaling Density Functional Theory.
 http://dx.doi.org/10.1002/9781118670712.ch8


 Borstnik, U; VandeVondele, J; Weber, V; Hutter, J. 
 PARALLEL COMPUTING, 40 (5-6), 47-58 (2014). 
 Sparse matrix multiplication: The distributed block-compressed sparse
 row library.
 http://dx.doi.org/10.1016/j.parco.2014.03.012


 Hutter, J; Iannuzzi, M; Schiffmann, F; VandeVondele, J. 
 WILEY INTERDISCIPLINARY REVIEWS-COMPUTATIONAL MOLECULAR SCIENCE, 4 (1), 15-25 (2014). 
 CP2K: atomistic simulations of condensed matter systems.
 http://dx.doi.org/10.1002/wcms.1159


 Grimme, S; Ehrlich, S; Goerigk, L. 
 JOURNAL OF COMPUTATIONAL CHEMISTRY, 32, 1456 (2011). 
 Effect of the damping function in dispersion corrected density functional theory.
 http://dx.doi.org/10.1002/jcc.21759


 Grimme, S; Antony, J; Ehrlich, S; Krieg, H. 
 JOURNAL OF CHEMICAL PHYSICS, 132 (15), 154104 (2010). 
 A consistent and accurate ab initio parametrization of density
 functional dispersion correction (DFT-D) for the 94 elements H-Pu.
 http://dx.doi.org/10.1063/1.3382344


 VandeVondele, J; Hutter, J. 
 JOURNAL OF CHEMICAL PHYSICS, 127 (11), 114105 (2007). 
 Gaussian basis sets for accurate calculations on molecular systems in
 gas and condensed phases.
 http://dx.doi.org/10.1063/1.2770708


 Krack, M. 
 THEORETICAL CHEMISTRY ACCOUNTS, 114 (1-3), 145-152 (2005). 
 Pseudopotentials for H to Kr optimized for gradient-corrected
 exchange-correlation functionals.
 http://dx.doi.org/10.1007/s00214-005-0655-y


 VandeVondele, J; Krack, M; Mohamed, F; Parrinello, M; Chassaing, T;
 Hutter, J. COMPUTER PHYSICS COMMUNICATIONS, 167 (2), 103-128 (2005). 
 QUICKSTEP: Fast and accurate density functional calculations using a
 mixed Gaussian and plane waves approach.
 http://dx.doi.org/10.1016/j.cpc.2004.12.014


 Frigo, M; Johnson, SG. 
 PROCEEDINGS OF THE IEEE, 93 (2), 216-231 (2005). 
 The design and implementation of FFTW3.
 http://dx.doi.org/10.1109/JPROC.2004.840301


 Hartwigsen, C; Goedecker, S; Hutter, J. 
 PHYSICAL REVIEW B, 58 (7), 3641-3662 (1998). 
 Relativistic separable dual-space Gaussian pseudopotentials from H to Rn.
 http://dx.doi.org/10.1103/PhysRevB.58.3641


 Lippert, G; Hutter, J; Parrinello, M. 
 MOLECULAR PHYSICS, 92 (3), 477-487 (1997). 
 A hybrid Gaussian and plane wave density functional scheme.
 http://dx.doi.org/10.1080/002689797170220


 Goedecker, S; Teter, M; Hutter, J. 
 PHYSICAL REVIEW B, 54 (3), 1703-1710 (1996). 
 Separable dual-space Gaussian pseudopotentials.
 http://dx.doi.org/10.1103/PhysRevB.54.1703


 BECKE, AD. PHYSICAL REVIEW A, 38 (6), 3098-3100 (1988). 
 DENSITY-FUNCTIONAL EXCHANGE-ENERGY APPROXIMATION WITH CORRECT
 ASYMPTOTIC-BEHAVIOR.
 http://dx.doi.org/10.1103/PhysRevA.38.3098


 LEE, CT; YANG, WT; PARR, RG. 
 PHYSICAL REVIEW B, 37 (2), 785-789 (1988). 
 DEVELOPMENT OF THE COLLE-SALVETTI CORRELATION-ENERGY FORMULA INTO A
 FUNCTIONAL OF THE ELECTRON-DENSITY.
 http://dx.doi.org/10.1103/PhysRevB.37.785


 -------------------------------------------------------------------------------
 -                                                                             -
 -                                T I M I N G                                  -
 -                                                                             -
 -------------------------------------------------------------------------------
 SUBROUTINE                       CALLS  ASD         SELF TIME        TOTAL TIME
                                MAXIMUM       AVERAGE  MAXIMUM  AVERAGE  MAXIMUM
 CP2K                                 1  1.0    0.031    0.051 3031.728 3031.758
 qs_energies                          5  2.0    0.001    0.001 3029.791 3029.821
 scf_env_do_scf                       5  3.0    0.001    0.002 3020.203 3021.395
 scf_env_do_scf_inner_loop          405  4.0    0.023    0.044 3020.202 3021.393
 qs_ks_update_qs_env                405  5.0    0.005    0.007 1070.024 1070.085
 rebuild_ks_matrix                  405  6.0    0.002    0.002 1068.833 1068.893
 qs_ks_build_kohn_sham_matrix       405  7.0    0.059    0.071 1068.831 1068.892
 qs_rho_update_rho                  410  5.0    0.005    0.005  967.124  967.550
 calculate_rho_elec                 820  6.0  655.985  681.653  967.120  967.546
 sum_up_and_integrate               405  8.0    2.221    2.541  868.044  868.118
 integrate_v_rspace                 810  9.0  647.210  658.851  865.820  866.712
 qs_scf_new_mos                     405  5.0    0.009    0.011  660.372  660.592
 eigensolver                        810  6.0    0.065    0.084  630.245  631.107
 cp_fm_syevd                        810  7.0    0.007    0.008  480.640  480.702
 cp_fm_syevd_base                   810  8.0  480.570  480.627  480.570  480.627
 pw_transfer                       9360  9.0    0.590    0.670  421.675  432.701
 fft_wrap_pw1pw2                   8550  9.9    0.068    0.078  417.166  428.047
 fft_wrap_pw1pw2_150               3660 10.2   24.045   27.632  373.623  388.391
 gspace_mixing                      400  5.0    1.857    1.946  323.710  323.714
 fft3d_ps                          8550 11.9  190.278  206.307  303.430  319.300
 density_rs2pw                      820  7.0    0.037    0.040  284.743  308.018
 broyden_mixing                     400  6.0  186.216  203.498  214.706  216.653
 rs_pw_transfer                    6525  9.5    0.079    0.091  172.250  198.850
 potential_pw2rs                    810 10.0    0.124    0.134  182.066  183.355
 cp_fm_triangular_multiply         2430  7.0  144.743  146.732  144.743  146.732
 qs_vxc_create                      405  8.0    0.008    0.010  134.432  138.018
 xc_vxc_pw_create                   405  9.0   14.236   17.041  134.424  138.011
 mp_alltoall_z22v                  8550 13.9   77.459  120.477   77.459  120.477
 rs_pw_transfer_RS2PW_150           825  9.0   22.384   24.978   65.878   94.348
 xc_rho_set_and_dset_create         405 10.0   14.647   16.091   84.805   86.759
 mp_waitany                       15700 11.5   55.564   78.946   55.564   78.946
 mp_alltoall_d11v                 11385  9.3   47.094   76.217   47.094   76.217
 x_to_yz                           4455 13.3   19.896   22.135   61.349   73.014
 rs_distribute_matrix              1630  8.5    2.087    3.755   43.950   71.943
 yz_to_x                           4095 12.6   15.661   17.514   51.666   70.966
 pw_nn_compose_r                   4860 10.5   28.479   30.225   48.440   69.083
 -------------------------------------------------------------------------------

 The number of warnings for this run is : 7
 
 -------------------------------------------------------------------------------
  **** **** ******  **  PROGRAM ENDED AT                 2024-08-12 15:18:04.274
 ***** ** ***  *** **   PROGRAM RAN ON                                sebnode128
 **    ****   ******    PROGRAM RAN BY                                    luehrs
 ***** **    ** ** **   PROGRAM PROCESS ID                                931876
  **** **  *******  **  PROGRAM STOPPED IN /home/luehrs/PhD/Sodium_batteries/Sod
                                           ium-graphene-interlayer/Zig_Zag_2
