 DBCSR| CPU Multiplication driver                                           BLAS (U)
 DBCSR| Multrec recursion limit                                              512 (U)
 DBCSR| Multiplication stack size                                           1000 (D)
 DBCSR| Maximum elements for images                                    UNLIMITED (U)
 DBCSR| Multiplicative factor virtual images                                   1 (U)
 DBCSR| Use multiplication densification                                       T (D)
 DBCSR| Multiplication size stacks                                             3 (U)
 DBCSR| Use memory pool for CPU allocation                                     F (U)
 DBCSR| Number of 3D layers                                               SINGLE (U)
 DBCSR| Use MPI memory allocation                                              F (U)
 DBCSR| Use RMA algorithm                                                      F (U)
 DBCSR| Use Communication thread                                               T (U)
 DBCSR| Communication thread load                                             87 (D)
 DBCSR| MPI: My process id                                                     0
 DBCSR| MPI: Number of processes                                              16
 DBCSR| OMP: Current number of threads                                         1
 DBCSR| OMP: Max number of threads                                             1
 DBCSR| Split modifier for TAS multiplication algorithm                  1.0E+00 (U)


  **** **** ******  **  PROGRAM STARTED AT               2025-03-18 13:50:48.465
 ***** ** ***  *** **   PROGRAM STARTED ON                            sebnode129
 **    ****   ******    PROGRAM STARTED BY                                luehrs
 ***** **    ** ** **   PROGRAM PROCESS ID                               1236037
  **** **  *******  **  PROGRAM STARTED IN /home/luehrs/PhD/Sodium_batteries/Sod
                                           ium-graphene-curvature/Curved_surface
                                           _concave/Zig-Zag2

 CP2K| version string:                                       CP2K version 2023.1
 CP2K| source code revision number:                                  git:b888bd8
 CP2K| cp2kflags: omp libint fftw3 libxc elpa parallel scalapack spglib         
 CP2K| is freely available from                            https://www.cp2k.org/
 CP2K| Program compiled at                          Tue Jan 10 19:52:03 UTC 2023
 CP2K| Program compiled on                                            x86-ubc-01
 CP2K| Program compiled for                                Linux-x86_64-gfortran
 CP2K| Data directory path                                       /usr/share/cp2k
 CP2K| Input file name                                            input.BSSE.inp

 GLOBAL| Force Environment number                                              1
 GLOBAL| Basis set file name                                      ./BASIS_MOLOPT
 GLOBAL| Potential file name                                    ./GTH_POTENTIALS
 GLOBAL| MM Potential file name                                     MM_POTENTIAL
 GLOBAL| Coordinate file name                           coords_sur_2_relaxed.xyz
 GLOBAL| Method name                                                        CP2K
 GLOBAL| Project name                                            curv_sur_2_BSSE
 GLOBAL| Run type                                                           BSSE
 GLOBAL| FFT library                                                       FFTW3
 GLOBAL| Diagonalization library                                            ELPA
 GLOBAL| DGEMM library                                                      BLAS
 GLOBAL| Minimum number of eigenvectors for ELPA usage                        16
 GLOBAL| Orthonormality check for eigenvectors                          DISABLED
 GLOBAL| Matrix multiplication library                                 ScaLAPACK
 GLOBAL| All-to-all communication in single precision                          F
 GLOBAL| FFTs using library dependent lengths                                  F
 GLOBAL| Grid backend                                                       AUTO
 GLOBAL| Global print level                                                  LOW
 GLOBAL| MPI I/O enabled                                                       T
 GLOBAL| Total number of message passing processes                            16
 GLOBAL| Number of threads for this process                                    1
 GLOBAL| This output is from process                                           0
 GLOBAL| Stack size for threads created by OpenMP (OMP_STACKSIZE)        default
 GLOBAL| CPU model name                          AMD EPYC 7513 32-Core Processor

 MEMORY| system memory details [Kb]
 MEMORY|                        rank 0           min           max       average
 MEMORY| MemTotal            131832300     131832300     131832300     131832300
 MEMORY| MemFree              96291404      96291404      96291404      96291404
 MEMORY| Buffers                 21196         21196         21196         21196
 MEMORY| Cached                1139716       1139716       1139716       1139716
 MEMORY| Slab                   827144        827144        827144        827144
 MEMORY| SReclaimable           179968        179968        179968        179968
 MEMORY| MemLikelyFree        97632284      97632284      97632284      97632284


 GENERATE|  Preliminary Number of Bonds generated:                             0
 GENERATE|  Achieved consistency in connectivity generation.

 *******************************************************************************
 *******************************************************************************
 **                                                                           **
 **     #####                         ##              ##                      **
 **    ##   ##            ##          ##              ##                      **
 **   ##     ##                       ##            ######                    **
 **   ##     ##  ##   ##  ##   #####  ##  ##   ####   ##    #####    #####    **
 **   ##     ##  ##   ##  ##  ##      ## ##   ##      ##   ##   ##  ##   ##   **
 **   ##  ## ##  ##   ##  ##  ##      ####     ###    ##   ######   ######    **
 **    ##  ###   ##   ##  ##  ##      ## ##      ##   ##   ##       ##        **
 **     #######   #####   ##   #####  ##  ##  ####    ##    #####   ##        **
 **           ##                                                    ##        **
 **                                                                           **
 **                                                ... make the atoms dance   **
 **                                                                           **
 **            Copyright (C) by CP2K developers group (2000-2022)             **
 **                      J. Chem. Phys. 152, 194103 (2020)                    **
 **                                                                           **
 *******************************************************************************


 TOTAL NUMBERS AND MAXIMUM NUMBERS

  Total number of            - Atomic kinds:                                   2
                             - Atoms:                                        225
                             - Shell sets:                                   225
                             - Shells:                                      1125
                             - Primitive Cartesian functions:               1127
                             - Cartesian basis functions:                   3145
                             - Spherical basis functions:                   2921

  Maximum angular momentum of- Orbital basis functions:                        2
                             - Local part of the GTH pseudopotential:          2
                             - Non-local part of the GTH pseudopotential:      1


 SCF PARAMETERS         Density guess:                                    ATOMIC
                        --------------------------------------------------------
                        max_scf:                                             300
                        max_scf_history:                                       0
                        max_diis:                                              4
                        --------------------------------------------------------
                        eps_scf:                                        3.00E-07
                        eps_scf_history:                                0.00E+00
                        eps_diis:                                       1.00E-01
                        eps_eigval:                                     1.00E-05
                        --------------------------------------------------------
                        level_shift [a.u.]:                             0.000000
                        added MOs                                       100    0
                        --------------------------------------------------------
                        Mixing method:                            BROYDEN_MIXING
                                                charge density mixing in g-space
                        --------------------------------------------------------
                        Smear method:                                FERMI_DIRAC
                        Electronic temperature [K]:                        300.0
                        Electronic temperature [a.u.]:                  9.50E-04
                        Accuracy threshold:                             1.00E-10
                        --------------------------------------------------------
                        Outer loop SCF in use 
                        No variables optimised in outer loop
                        eps_scf                                         1.00E-06
                        max_scf                                              300
                        DIIS optimization
                        DIIS buffer length                                     3
                        step_size                                       5.00E-01

 -------------------------------------------------------------------------------
 -                                                                             -
 -  BSSE CALCULATION         FRAGMENT CONF: 10        FRAGMENT SUBCONF: 10     -
 -                           CHARGE =     0           MULTIPLICITY =     0     -
 -                                                                             -
 -                 ATOM INDEX                              ATOM NAME           -
 -                 ----------                              ---------           -
 -                      1                                   C                  -
 -                      2                                   C                  -
 -                      3                                   C                  -
 -                      4                                   C                  -
 -                      5                                   C                  -
 -                      6                                   C                  -
 -                      7                                   C                  -
 -                      8                                   C                  -
 -                      9                                   C                  -
 -                     10                                   C                  -
 -                     11                                   C                  -
 -                     12                                   C                  -
 -                     13                                   C                  -
 -                     14                                   C                  -
 -                     15                                   C                  -
 -                     16                                   C                  -
 -                     17                                   C                  -
 -                     18                                   C                  -
 -                     19                                   C                  -
 -                     20                                   C                  -
 -                     21                                   C                  -
 -                     22                                   C                  -
 -                     23                                   C                  -
 -                     24                                   C                  -
 -                     25                                   C                  -
 -                     26                                   C                  -
 -                     27                                   C                  -
 -                     28                                   C                  -
 -                     29                                   C                  -
 -                     30                                   C                  -
 -                     31                                   C                  -
 -                     32                                   C                  -
 -                     33                                   C                  -
 -                     34                                   C                  -
 -                     35                                   C                  -
 -                     36                                   C                  -
 -                     37                                   C                  -
 -                     38                                   C                  -
 -                     39                                   C                  -
 -                     40                                   C                  -
 -                     41                                   C                  -
 -                     42                                   C                  -
 -                     43                                   C                  -
 -                     44                                   C                  -
 -                     45                                   C                  -
 -                     46                                   C                  -
 -                     47                                   C                  -
 -                     48                                   C                  -
 -                     49                                   C                  -
 -                     50                                   C                  -
 -                     51                                   C                  -
 -                     52                                   C                  -
 -                     53                                   C                  -
 -                     54                                   C                  -
 -                     55                                   C                  -
 -                     56                                   C                  -
 -                     57                                   C                  -
 -                     58                                   C                  -
 -                     59                                   C                  -
 -                     60                                   C                  -
 -                     61                                   C                  -
 -                     62                                   C                  -
 -                     63                                   C                  -
 -                     64                                   C                  -
 -                     65                                   C                  -
 -                     66                                   C                  -
 -                     67                                   C                  -
 -                     68                                   C                  -
 -                     69                                   C                  -
 -                     70                                   C                  -
 -                     71                                   C                  -
 -                     72                                   C                  -
 -                     73                                   C                  -
 -                     74                                   C                  -
 -                     75                                   C                  -
 -                     76                                   C                  -
 -                     77                                   C                  -
 -                     78                                   C                  -
 -                     79                                   C                  -
 -                     80                                   C                  -
 -                     81                                   C                  -
 -                     82                                   C                  -
 -                     83                                   C                  -
 -                     84                                   C                  -
 -                     85                                   C                  -
 -                     86                                   C                  -
 -                     87                                   C                  -
 -                     88                                   C                  -
 -                     89                                   C                  -
 -                     90                                   C                  -
 -                     91                                   C                  -
 -                     92                                   C                  -
 -                     93                                   C                  -
 -                     94                                   C                  -
 -                     95                                   C                  -
 -                     96                                   C                  -
 -                     97                                   C                  -
 -                     98                                   C                  -
 -                     99                                   C                  -
 -                    100                                   C                  -
 -                    101                                   C                  -
 -                    102                                   C                  -
 -                    103                                   C                  -
 -                    104                                   C                  -
 -                    105                                   C                  -
 -                    106                                   C                  -
 -                    107                                   C                  -
 -                    108                                   C                  -
 -                    109                                   C                  -
 -                    110                                   C                  -
 -                    111                                   C                  -
 -                    112                                   C                  -
 -                    113                                   C                  -
 -                    114                                   C                  -
 -                    115                                   C                  -
 -                    116                                   C                  -
 -                    117                                   C                  -
 -                    118                                   C                  -
 -                    119                                   C                  -
 -                    120                                   C                  -
 -                    121                                   C                  -
 -                    122                                   C                  -
 -                    123                                   C                  -
 -                    124                                   C                  -
 -                    125                                   C                  -
 -                    126                                   C                  -
 -                    127                                   C                  -
 -                    128                                   C                  -
 -                    129                                   C                  -
 -                    130                                   C                  -
 -                    131                                   C                  -
 -                    132                                   C                  -
 -                    133                                   C                  -
 -                    134                                   C                  -
 -                    135                                   C                  -
 -                    136                                   C                  -
 -                    137                                   C                  -
 -                    138                                   C                  -
 -                    139                                   C                  -
 -                    140                                   C                  -
 -                    141                                   C                  -
 -                    142                                   C                  -
 -                    143                                   C                  -
 -                    144                                   C                  -
 -                    145                                   C                  -
 -                    146                                   C                  -
 -                    147                                   C                  -
 -                    148                                   C                  -
 -                    149                                   C                  -
 -                    150                                   C                  -
 -                    151                                   C                  -
 -                    152                                   C                  -
 -                    153                                   C                  -
 -                    154                                   C                  -
 -                    155                                   C                  -
 -                    156                                   C                  -
 -                    157                                   C                  -
 -                    158                                   C                  -
 -                    159                                   C                  -
 -                    160                                   C                  -
 -                    161                                   C                  -
 -                    162                                   C                  -
 -                    163                                   C                  -
 -                    164                                   C                  -
 -                    165                                   C                  -
 -                    166                                   C                  -
 -                    167                                   C                  -
 -                    168                                   C                  -
 -                    169                                   C                  -
 -                    170                                   C                  -
 -                    171                                   C                  -
 -                    172                                   C                  -
 -                    173                                   C                  -
 -                    174                                   C                  -
 -                    175                                   C                  -
 -                    176                                   C                  -
 -                    177                                   C                  -
 -                    178                                   C                  -
 -                    179                                   C                  -
 -                    180                                   C                  -
 -                    181                                   C                  -
 -                    182                                   C                  -
 -                    183                                   C                  -
 -                    184                                   C                  -
 -                    185                                   C                  -
 -                    186                                   C                  -
 -                    187                                   C                  -
 -                    188                                   C                  -
 -                    189                                   C                  -
 -                    190                                   C                  -
 -                    191                                   C                  -
 -                    192                                   C                  -
 -                    193                                   C                  -
 -                    194                                   C                  -
 -                    195                                   C                  -
 -                    196                                   C                  -
 -                    197                                   C                  -
 -                    198                                   C                  -
 -                    199                                   C                  -
 -                    200                                   C                  -
 -                    201                                   C                  -
 -                    202                                   C                  -
 -                    203                                   C                  -
 -                    204                                   C                  -
 -                    205                                   C                  -
 -                    206                                   C                  -
 -                    207                                   C                  -
 -                    208                                   C                  -
 -                    209                                   C                  -
 -                    210                                   C                  -
 -                    211                                   C                  -
 -                    212                                   C                  -
 -                    213                                   C                  -
 -                    214                                   C                  -
 -                    215                                   C                  -
 -                    216                                   C                  -
 -                    217                                   C                  -
 -                    218                                   C                  -
 -                    219                                   C                  -
 -                    220                                   C                  -
 -                    221                                   C                  -
 -                    222                                   C                  -
 -                    223                                   C                  -
 -                    224                                   C                  -
 -------------------------------------------------------------------------------

 *******************************************************************************
 *******************************************************************************
 **                                                                           **
 **     #####                         ##              ##                      **
 **    ##   ##            ##          ##              ##                      **
 **   ##     ##                       ##            ######                    **
 **   ##     ##  ##   ##  ##   #####  ##  ##   ####   ##    #####    #####    **
 **   ##     ##  ##   ##  ##  ##      ## ##   ##      ##   ##   ##  ##   ##   **
 **   ##  ## ##  ##   ##  ##  ##      ####     ###    ##   ######   ######    **
 **    ##  ###   ##   ##  ##  ##      ## ##      ##   ##   ##       ##        **
 **     #######   #####   ##   #####  ##  ##  ####    ##    #####   ##        **
 **           ##                                                    ##        **
 **                                                                           **
 **                                                ... make the atoms dance   **
 **                                                                           **
 **            Copyright (C) by CP2K developers group (2000-2022)             **
 **                      J. Chem. Phys. 152, 194103 (2020)                    **
 **                                                                           **
 *******************************************************************************


 TOTAL NUMBERS AND MAXIMUM NUMBERS

  Total number of            - Atomic kinds:                                   1
                             - Atoms:                                        224
                             - Shell sets:                                   224
                             - Shells:                                      1120
                             - Primitive Cartesian functions:               1120
                             - Cartesian basis functions:                   3136
                             - Spherical basis functions:                   2912

  Maximum angular momentum of- Orbital basis functions:                        2
                             - Local part of the GTH pseudopotential:          2
                             - Non-local part of the GTH pseudopotential:      0


 SCF PARAMETERS         Density guess:                                    ATOMIC
                        --------------------------------------------------------
                        max_scf:                                             300
                        max_scf_history:                                       0
                        max_diis:                                              4
                        --------------------------------------------------------
                        eps_scf:                                        3.00E-07
                        eps_scf_history:                                0.00E+00
                        eps_diis:                                       1.00E-01
                        eps_eigval:                                     1.00E-05
                        --------------------------------------------------------
                        level_shift [a.u.]:                             0.000000
                        added MOs                                       100    0
                        --------------------------------------------------------
                        Mixing method:                            BROYDEN_MIXING
                                                charge density mixing in g-space
                        --------------------------------------------------------
                        Smear method:                                FERMI_DIRAC
                        Electronic temperature [K]:                        300.0
                        Electronic temperature [a.u.]:                  9.50E-04
                        Accuracy threshold:                             1.00E-10
                        --------------------------------------------------------
                        Outer loop SCF in use 
                        No variables optimised in outer loop
                        eps_scf                                         1.00E-06
                        max_scf                                              300
                        DIIS optimization
                        DIIS buffer length                                     3
                        step_size                                       5.00E-01

 Number of electrons:                                                        896
 Number of occupied orbitals:                                                448
 Number of molecular orbitals:                                               548

 Number of orbital functions:                                               2912
 Number of independent orbital functions:                                   2912

 Extrapolation method: initial_guess


 SCF WAVEFUNCTION OPTIMIZATION

  Step     Update method      Time    Convergence         Total energy    Change
  ------------------------------------------------------------------------------
     1 NoMix/Diag. 0.10E+00  171.8     0.92855114     -1265.9121593170 -1.27E+03
     2 Broy./Diag. 0.10E+00  194.8     0.26359742     -1214.9946253192  5.09E+01
     3 Broy./Diag. 0.10E+00  185.0     0.05096028     -1222.9896793010 -8.00E+00
     4 Broy./Diag. 0.10E+00  194.5     0.14876035     -1255.9815089556 -3.30E+01
     5 Broy./Diag. 0.10E+00  159.2     0.12768495     -1269.1463072012 -1.32E+01
     6 Broy./Diag. 0.10E+00  165.4     0.08359928     -1270.0244906654 -8.78E-01
     7 Broy./Diag. 0.10E+00  169.6     0.03847276     -1270.7394853252 -7.15E-01
     8 Broy./Diag. 0.10E+00  176.5     0.01198564     -1271.6819603260 -9.42E-01
     9 Broy./Diag. 0.10E+00  185.4     0.00957597     -1272.1601729733 -4.78E-01
    10 Broy./Diag. 0.10E+00  177.3     0.01314543     -1272.5780135346 -4.18E-01
    11 Broy./Diag. 0.10E+00  175.7     0.00493302     -1272.7193181844 -1.41E-01
    12 Broy./Diag. 0.10E+00  196.3     0.00268577     -1273.0271956956 -3.08E-01
    13 Broy./Diag. 0.10E+00  176.6     0.00263463     -1273.2837986134 -2.57E-01
    14 Broy./Diag. 0.10E+00  194.7     0.00419732     -1273.4127999922 -1.29E-01
    15 Broy./Diag. 0.10E+00  193.2     0.00080185     -1273.4914809819 -7.87E-02
    16 Broy./Diag. 0.10E+00  174.2     0.00112930     -1273.4707109507  2.08E-02
    17 Broy./Diag. 0.10E+00  173.4     0.00233761     -1273.4555839786  1.51E-02
    18 Broy./Diag. 0.10E+00  197.9     0.00194279     -1273.5099943536 -5.44E-02
    19 Broy./Diag. 0.10E+00  203.3     0.00209133     -1273.5338882392 -2.39E-02
    20 Broy./Diag. 0.10E+00  183.4     0.00134366     -1273.5544980328 -2.06E-02
    21 Broy./Diag. 0.10E+00  189.1     0.00047129     -1273.5869961959 -3.25E-02
    22 Broy./Diag. 0.10E+00  181.9     0.00019771     -1273.6195103200 -3.25E-02
    23 Broy./Diag. 0.10E+00  182.0     0.00014060     -1273.6458137838 -2.63E-02
    24 Broy./Diag. 0.10E+00  180.8     0.00033124     -1273.6471084954 -1.29E-03
    25 Broy./Diag. 0.10E+00  185.5     0.00019573     -1273.6427937975  4.31E-03
    26 Broy./Diag. 0.10E+00  180.2     0.00020272     -1273.6368986807  5.90E-03
    27 Broy./Diag. 0.10E+00  173.2     0.00028741     -1273.6284236983  8.47E-03
    28 Broy./Diag. 0.10E+00  200.8     0.00033089     -1273.6272934629  1.13E-03
    29 Broy./Diag. 0.10E+00  180.4     0.00055854     -1273.6366635973 -9.37E-03
    30 Broy./Diag. 0.10E+00  208.1     0.00048188     -1273.6435977444 -6.93E-03
    31 Broy./Diag. 0.10E+00  224.6     0.00015325     -1273.6463051775 -2.71E-03
    32 Broy./Diag. 0.10E+00  181.7     0.00017303     -1273.6449244047  1.38E-03
    33 Broy./Diag. 0.10E+00  186.0     0.00014330     -1273.6435634387  1.36E-03
    34 Broy./Diag. 0.10E+00  180.8     0.00009674     -1273.6415868684  1.98E-03
    35 Broy./Diag. 0.10E+00  182.6     0.00014743     -1273.6439586183 -2.37E-03
    36 Broy./Diag. 0.10E+00  197.5     0.00020370     -1273.6459831582 -2.02E-03
    37 Broy./Diag. 0.10E+00  180.6     0.00009722     -1273.6488357099 -2.85E-03
    38 Broy./Diag. 0.10E+00  199.3     0.00002377     -1273.6511731862 -2.34E-03
    39 Broy./Diag. 0.10E+00  166.8     0.00009044     -1273.6525682280 -1.40E-03
    40 Broy./Diag. 0.10E+00  200.7     0.00010735     -1273.6544350585 -1.87E-03
    41 Broy./Diag. 0.10E+00  161.8     0.00004590     -1273.6554015567 -9.66E-04
    42 Broy./Diag. 0.10E+00  180.1     0.00005335     -1273.6569120628 -1.51E-03
    43 Broy./Diag. 0.10E+00  173.8     0.00004781     -1273.6583973213 -1.49E-03
    44 Broy./Diag. 0.10E+00  170.3     0.00001419     -1273.6588563239 -4.59E-04
    45 Broy./Diag. 0.10E+00  203.0     0.00001349     -1273.6587209794  1.35E-04
    46 Broy./Diag. 0.10E+00  207.6     0.00004057     -1273.6581500713  5.71E-04
    47 Broy./Diag. 0.10E+00  197.8     0.00003752     -1273.6573857175  7.64E-04
    48 Broy./Diag. 0.10E+00  216.3     0.00001692     -1273.6568065292  5.79E-04
    49 Broy./Diag. 0.10E+00  171.3     0.00001059     -1273.6565780075  2.29E-04
    50 Broy./Diag. 0.10E+00  219.5     0.00001318     -1273.6564513041  1.27E-04
    51 Broy./Diag. 0.10E+00  211.9     0.00001933     -1273.6563118595  1.39E-04
    52 Broy./Diag. 0.10E+00  209.8     0.00001586     -1273.6563322507 -2.04E-05
    53 Broy./Diag. 0.10E+00  195.6     0.00001590     -1273.6564232868 -9.10E-05
    54 Broy./Diag. 0.10E+00  193.1     0.00001031     -1273.6567227652 -2.99E-04
    55 Broy./Diag. 0.10E+00  190.0     0.00000458     -1273.6570550338 -3.32E-04
    56 Broy./Diag. 0.10E+00  156.8     0.00000833     -1273.6573083452 -2.53E-04
    57 Broy./Diag. 0.10E+00  161.4     0.00000873     -1273.6575237164 -2.15E-04
    58 Broy./Diag. 0.10E+00  165.7     0.00000484     -1273.6576601005 -1.36E-04
    59 Broy./Diag. 0.10E+00  205.6     0.00000201     -1273.6576960670 -3.60E-05
    60 Broy./Diag. 0.10E+00  205.6     0.00000407     -1273.6576918435  4.22E-06
    61 Broy./Diag. 0.10E+00  220.4     0.00000453     -1273.6576470758  4.48E-05
    62 Broy./Diag. 0.10E+00  216.1     0.00000300     -1273.6576183995  2.87E-05
    63 Broy./Diag. 0.10E+00  184.7     0.00000238     -1273.6575978393  2.06E-05
    64 Broy./Diag. 0.10E+00  160.7     0.00000200     -1273.6575509466  4.69E-05
    65 Broy./Diag. 0.10E+00  166.5     0.00000102     -1273.6575146247  3.63E-05
    66 Broy./Diag. 0.10E+00  202.9     0.00000210     -1273.6574806647  3.40E-05
    67 Broy./Diag. 0.10E+00  187.3     0.00000259     -1273.6574566839  2.40E-05
    68 Broy./Diag. 0.10E+00  202.2     0.00000212     -1273.6574611365 -4.45E-06
    69 Broy./Diag. 0.10E+00  207.4     0.00000155     -1273.6575033562 -4.22E-05
    70 Broy./Diag. 0.10E+00  196.3     0.00000156     -1273.6575427982 -3.94E-05
    71 Broy./Diag. 0.10E+00  183.9     0.00000127     -1273.6575676944 -2.49E-05
    72 Broy./Diag. 0.10E+00  212.4     0.00000073     -1273.6575829749 -1.53E-05
    73 Broy./Diag. 0.10E+00  195.7     0.00000085     -1273.6575853230 -2.35E-06
    74 Broy./Diag. 0.10E+00  196.6     0.00000063     -1273.6575947149 -9.39E-06
    75 Broy./Diag. 0.10E+00  189.5     0.00000025     -1273.6575994268 -4.71E-06

  *** SCF run converged in    75 steps ***


  Electronic density on regular grids:       -896.0000000000        0.0000000000
  Core density on regular grids:              895.9999999992       -0.0000000008
  Total charge density on r-space grids:       -0.0000000007
  Total charge density g-space grids:          -0.0000000007

  Overlap energy of the core charge distribution:               0.00005632564276
  Self energy of the core charge distribution:              -2987.04177559540722
  Core Hamiltonian energy:                                    937.74498371287325
  Hartree energy:                                            1167.03334637293665
  Exchange-correlation energy:                               -391.12778182923921
  Dispersion energy:                                           -0.25986067328793
  Electronic entropic energy:                                  -0.00656773959893
  Fermi energy:                                                -0.15103835500878

  Total energy:                                             -1273.65759942676164

  outer SCF iter =    1 RMS gradient =   0.25E-06 energy =      -1273.6575994268
  outer SCF loop converged in   1 iterations or   75 steps


 *** WARNING in qs_loc_utils.F:1500 :: User requested the calculation of ***
 *** the localized wavefunction but the section LOCALIZE was not         ***
 *** specified. Localization will not be performed!                      ***


 -------------------------------------------------------------------------------
 -                                                                             -
 -  BSSE CALCULATION         FRAGMENT CONF: 01        FRAGMENT SUBCONF: 01     -
 -                           CHARGE =     0           MULTIPLICITY =     0     -
 -                                                                             -
 -                 ATOM INDEX                              ATOM NAME           -
 -                 ----------                              ---------           -
 -                    225                                   Na                 -
 -------------------------------------------------------------------------------

 *******************************************************************************
 *******************************************************************************
 **                                                                           **
 **     #####                         ##              ##                      **
 **    ##   ##            ##          ##              ##                      **
 **   ##     ##                       ##            ######                    **
 **   ##     ##  ##   ##  ##   #####  ##  ##   ####   ##    #####    #####    **
 **   ##     ##  ##   ##  ##  ##      ## ##   ##      ##   ##   ##  ##   ##   **
 **   ##  ## ##  ##   ##  ##  ##      ####     ###    ##   ######   ######    **
 **    ##  ###   ##   ##  ##  ##      ## ##      ##   ##   ##       ##        **
 **     #######   #####   ##   #####  ##  ##  ####    ##    #####   ##        **
 **           ##                                                    ##        **
 **                                                                           **
 **                                                ... make the atoms dance   **
 **                                                                           **
 **            Copyright (C) by CP2K developers group (2000-2022)             **
 **                      J. Chem. Phys. 152, 194103 (2020)                    **
 **                                                                           **
 *******************************************************************************

 *** WARNING in qs_environment.F:1486 :: More added MOs requested than     ***
 *** available. The full set of unoccupied MOs will be used. Use           ***
 *** 'ADDED_MOS -1' to always use all available MOs and to get rid of this ***
 *** warning.                                                              ***



 TOTAL NUMBERS AND MAXIMUM NUMBERS

  Total number of            - Atomic kinds:                                   1
                             - Atoms:                                          1
                             - Shell sets:                                     1
                             - Shells:                                         5
                             - Primitive Cartesian functions:                  7
                             - Cartesian basis functions:                      9
                             - Spherical basis functions:                      9

  Maximum angular momentum of- Orbital basis functions:                        1
                             - Local part of the GTH pseudopotential:          2
                             - Non-local part of the GTH pseudopotential:      1


 SCF PARAMETERS         Density guess:                                    ATOMIC
                        --------------------------------------------------------
                        max_scf:                                             300
                        max_scf_history:                                       0
                        max_diis:                                              4
                        --------------------------------------------------------
                        eps_scf:                                        3.00E-07
                        eps_scf_history:                                0.00E+00
                        eps_diis:                                       1.00E-01
                        eps_eigval:                                     1.00E-05
                        --------------------------------------------------------
                        level_shift [a.u.]:                             0.000000
                        added MOs                                         4    0
                        --------------------------------------------------------
                        Mixing method:                            BROYDEN_MIXING
                                                charge density mixing in g-space
                        --------------------------------------------------------
                        Smear method:                                FERMI_DIRAC
                        Electronic temperature [K]:                        300.0
                        Electronic temperature [a.u.]:                  9.50E-04
                        Accuracy threshold:                             1.00E-10
                        --------------------------------------------------------
                        Outer loop SCF in use 
                        No variables optimised in outer loop
                        eps_scf                                         1.00E-06
                        max_scf                                              300
                        DIIS optimization
                        DIIS buffer length                                     3
                        step_size                                       5.00E-01

 Number of electrons:                                                          9
 Number of occupied orbitals:                                                  5
 Number of molecular orbitals:                                                 9

 Number of orbital functions:                                                  9
 Number of independent orbital functions:                                      9

 Extrapolation method: initial_guess


 SCF WAVEFUNCTION OPTIMIZATION

  Step     Update method      Time    Convergence         Total energy    Change
  ------------------------------------------------------------------------------
     1 NoMix/Diag. 0.10E+00    6.6     0.02077802       -47.1632479978 -4.72E+01
     2 Broy./Diag. 0.10E+00   10.8     0.00009671       -47.1203827750  4.29E-02
     3 Broy./Diag. 0.10E+00   11.6     0.00099676       -47.1612490624 -4.09E-02
     4 Broy./Diag. 0.10E+00   12.1     0.00002400       -47.1689169527 -7.67E-03
     5 Broy./Diag. 0.10E+00   10.1     0.00025246       -47.1689534559 -3.65E-05
     6 Broy./Diag. 0.10E+00   13.8     0.00000809       -47.1690771259 -1.24E-04
     7 Broy./Diag. 0.10E+00   11.4     0.00014091       -47.1673955638  1.68E-03
     8 Broy./Diag. 0.10E+00   11.7     0.00001764       -47.1664481922  9.47E-04
     9 Broy./Diag. 0.10E+00   12.1     0.00018660       -47.1657943750  6.54E-04
    10 Broy./Diag. 0.10E+00   13.0     0.00000972       -47.1654084910  3.86E-04
    11 Broy./Diag. 0.10E+00   12.3     0.00009319       -47.1652039157  2.05E-04
    12 Broy./Diag. 0.10E+00   12.2     0.00000301       -47.1651415485  6.24E-05
    13 Broy./Diag. 0.10E+00   12.9     0.00000819       -47.1652379153 -9.64E-05
    14 Broy./Diag. 0.10E+00   13.7     0.00000082       -47.1652549797 -1.71E-05
    15 Broy./Diag. 0.10E+00   14.0     0.00001232       -47.1650934827  1.61E-04
    16 Broy./Diag. 0.10E+00   12.5     0.00000255       -47.1650645604  2.89E-05
    17 Broy./Diag. 0.10E+00   15.0     0.00000272       -47.1651018085 -3.72E-05
    18 Broy./Diag. 0.10E+00   12.1     0.00000204       -47.1651435398 -4.17E-05
    19 Broy./Diag. 0.10E+00   11.3     0.00000145       -47.1651617201 -1.82E-05
    20 Broy./Diag. 0.10E+00   13.5     0.00000260       -47.1651575374  4.18E-06
    21 Broy./Diag. 0.10E+00   13.8     0.00000269       -47.1651364648  2.11E-05
    22 Broy./Diag. 0.10E+00   13.6     0.00000453       -47.1651055277  3.09E-05
    23 Broy./Diag. 0.10E+00   13.6     0.00000310       -47.1650851429  2.04E-05
    24 Broy./Diag. 0.10E+00   13.9     0.00000120       -47.1650830239  2.12E-06
    25 Broy./Diag. 0.10E+00   14.2     0.00000028       -47.1650909115 -7.89E-06

  *** SCF run converged in    25 steps ***


  Electronic density on regular grids:         -9.0003203711       -0.0003203711
  Core density on regular grids:                9.0000000000       -0.0000000000
  Total charge density on r-space grids:       -0.0003203711
  Total charge density g-space grids:          -0.0003203711

  Overlap energy of the core charge distribution:               0.00000000000000
  Self energy of the core charge distribution:                -96.60649019442629
  Core Hamiltonian energy:                                     29.76188993392091
  Hartree energy:                                              26.72517733375302
  Exchange-correlation energy:                                 -7.04435030811891
  Dispersion energy:                                           -0.00000063510881
  Electronic entropic energy:                                  -0.00131704147593
  Fermi energy:                                                -0.09176756565741

  Total energy:                                               -47.16509091145601

  outer SCF iter =    1 RMS gradient =   0.28E-06 energy =        -47.1650909115
  outer SCF loop converged in   1 iterations or   25 steps


 *** WARNING in qs_loc_utils.F:1500 :: User requested the calculation of ***
 *** the localized wavefunction but the section LOCALIZE was not         ***
 *** specified. Localization will not be performed!                      ***


 -------------------------------------------------------------------------------
 -                                                                             -
 -  BSSE CALCULATION         FRAGMENT CONF: 11        FRAGMENT SUBCONF: 10     -
 -                           CHARGE =     0           MULTIPLICITY =     0     -
 -                                                                             -
 -                 ATOM INDEX                              ATOM NAME           -
 -                 ----------                              ---------           -
 -                      1                                   C                  -
 -                      2                                   C                  -
 -                      3                                   C                  -
 -                      4                                   C                  -
 -                      5                                   C                  -
 -                      6                                   C                  -
 -                      7                                   C                  -
 -                      8                                   C                  -
 -                      9                                   C                  -
 -                     10                                   C                  -
 -                     11                                   C                  -
 -                     12                                   C                  -
 -                     13                                   C                  -
 -                     14                                   C                  -
 -                     15                                   C                  -
 -                     16                                   C                  -
 -                     17                                   C                  -
 -                     18                                   C                  -
 -                     19                                   C                  -
 -                     20                                   C                  -
 -                     21                                   C                  -
 -                     22                                   C                  -
 -                     23                                   C                  -
 -                     24                                   C                  -
 -                     25                                   C                  -
 -                     26                                   C                  -
 -                     27                                   C                  -
 -                     28                                   C                  -
 -                     29                                   C                  -
 -                     30                                   C                  -
 -                     31                                   C                  -
 -                     32                                   C                  -
 -                     33                                   C                  -
 -                     34                                   C                  -
 -                     35                                   C                  -
 -                     36                                   C                  -
 -                     37                                   C                  -
 -                     38                                   C                  -
 -                     39                                   C                  -
 -                     40                                   C                  -
 -                     41                                   C                  -
 -                     42                                   C                  -
 -                     43                                   C                  -
 -                     44                                   C                  -
 -                     45                                   C                  -
 -                     46                                   C                  -
 -                     47                                   C                  -
 -                     48                                   C                  -
 -                     49                                   C                  -
 -                     50                                   C                  -
 -                     51                                   C                  -
 -                     52                                   C                  -
 -                     53                                   C                  -
 -                     54                                   C                  -
 -                     55                                   C                  -
 -                     56                                   C                  -
 -                     57                                   C                  -
 -                     58                                   C                  -
 -                     59                                   C                  -
 -                     60                                   C                  -
 -                     61                                   C                  -
 -                     62                                   C                  -
 -                     63                                   C                  -
 -                     64                                   C                  -
 -                     65                                   C                  -
 -                     66                                   C                  -
 -                     67                                   C                  -
 -                     68                                   C                  -
 -                     69                                   C                  -
 -                     70                                   C                  -
 -                     71                                   C                  -
 -                     72                                   C                  -
 -                     73                                   C                  -
 -                     74                                   C                  -
 -                     75                                   C                  -
 -                     76                                   C                  -
 -                     77                                   C                  -
 -                     78                                   C                  -
 -                     79                                   C                  -
 -                     80                                   C                  -
 -                     81                                   C                  -
 -                     82                                   C                  -
 -                     83                                   C                  -
 -                     84                                   C                  -
 -                     85                                   C                  -
 -                     86                                   C                  -
 -                     87                                   C                  -
 -                     88                                   C                  -
 -                     89                                   C                  -
 -                     90                                   C                  -
 -                     91                                   C                  -
 -                     92                                   C                  -
 -                     93                                   C                  -
 -                     94                                   C                  -
 -                     95                                   C                  -
 -                     96                                   C                  -
 -                     97                                   C                  -
 -                     98                                   C                  -
 -                     99                                   C                  -
 -                    100                                   C                  -
 -                    101                                   C                  -
 -                    102                                   C                  -
 -                    103                                   C                  -
 -                    104                                   C                  -
 -                    105                                   C                  -
 -                    106                                   C                  -
 -                    107                                   C                  -
 -                    108                                   C                  -
 -                    109                                   C                  -
 -                    110                                   C                  -
 -                    111                                   C                  -
 -                    112                                   C                  -
 -                    113                                   C                  -
 -                    114                                   C                  -
 -                    115                                   C                  -
 -                    116                                   C                  -
 -                    117                                   C                  -
 -                    118                                   C                  -
 -                    119                                   C                  -
 -                    120                                   C                  -
 -                    121                                   C                  -
 -                    122                                   C                  -
 -                    123                                   C                  -
 -                    124                                   C                  -
 -                    125                                   C                  -
 -                    126                                   C                  -
 -                    127                                   C                  -
 -                    128                                   C                  -
 -                    129                                   C                  -
 -                    130                                   C                  -
 -                    131                                   C                  -
 -                    132                                   C                  -
 -                    133                                   C                  -
 -                    134                                   C                  -
 -                    135                                   C                  -
 -                    136                                   C                  -
 -                    137                                   C                  -
 -                    138                                   C                  -
 -                    139                                   C                  -
 -                    140                                   C                  -
 -                    141                                   C                  -
 -                    142                                   C                  -
 -                    143                                   C                  -
 -                    144                                   C                  -
 -                    145                                   C                  -
 -                    146                                   C                  -
 -                    147                                   C                  -
 -                    148                                   C                  -
 -                    149                                   C                  -
 -                    150                                   C                  -
 -                    151                                   C                  -
 -                    152                                   C                  -
 -                    153                                   C                  -
 -                    154                                   C                  -
 -                    155                                   C                  -
 -                    156                                   C                  -
 -                    157                                   C                  -
 -                    158                                   C                  -
 -                    159                                   C                  -
 -                    160                                   C                  -
 -                    161                                   C                  -
 -                    162                                   C                  -
 -                    163                                   C                  -
 -                    164                                   C                  -
 -                    165                                   C                  -
 -                    166                                   C                  -
 -                    167                                   C                  -
 -                    168                                   C                  -
 -                    169                                   C                  -
 -                    170                                   C                  -
 -                    171                                   C                  -
 -                    172                                   C                  -
 -                    173                                   C                  -
 -                    174                                   C                  -
 -                    175                                   C                  -
 -                    176                                   C                  -
 -                    177                                   C                  -
 -                    178                                   C                  -
 -                    179                                   C                  -
 -                    180                                   C                  -
 -                    181                                   C                  -
 -                    182                                   C                  -
 -                    183                                   C                  -
 -                    184                                   C                  -
 -                    185                                   C                  -
 -                    186                                   C                  -
 -                    187                                   C                  -
 -                    188                                   C                  -
 -                    189                                   C                  -
 -                    190                                   C                  -
 -                    191                                   C                  -
 -                    192                                   C                  -
 -                    193                                   C                  -
 -                    194                                   C                  -
 -                    195                                   C                  -
 -                    196                                   C                  -
 -                    197                                   C                  -
 -                    198                                   C                  -
 -                    199                                   C                  -
 -                    200                                   C                  -
 -                    201                                   C                  -
 -                    202                                   C                  -
 -                    203                                   C                  -
 -                    204                                   C                  -
 -                    205                                   C                  -
 -                    206                                   C                  -
 -                    207                                   C                  -
 -                    208                                   C                  -
 -                    209                                   C                  -
 -                    210                                   C                  -
 -                    211                                   C                  -
 -                    212                                   C                  -
 -                    213                                   C                  -
 -                    214                                   C                  -
 -                    215                                   C                  -
 -                    216                                   C                  -
 -                    217                                   C                  -
 -                    218                                   C                  -
 -                    219                                   C                  -
 -                    220                                   C                  -
 -                    221                                   C                  -
 -                    222                                   C                  -
 -                    223                                   C                  -
 -                    224                                   C                  -
 -                    225                                   Na_ghost           -
 -------------------------------------------------------------------------------

 *******************************************************************************
 *******************************************************************************
 **                                                                           **
 **     #####                         ##              ##                      **
 **    ##   ##            ##          ##              ##                      **
 **   ##     ##                       ##            ######                    **
 **   ##     ##  ##   ##  ##   #####  ##  ##   ####   ##    #####    #####    **
 **   ##     ##  ##   ##  ##  ##      ## ##   ##      ##   ##   ##  ##   ##   **
 **   ##  ## ##  ##   ##  ##  ##      ####     ###    ##   ######   ######    **
 **    ##  ###   ##   ##  ##  ##      ## ##      ##   ##   ##       ##        **
 **     #######   #####   ##   #####  ##  ##  ####    ##    #####   ##        **
 **           ##                                                    ##        **
 **                                                                           **
 **                                                ... make the atoms dance   **
 **                                                                           **
 **            Copyright (C) by CP2K developers group (2000-2022)             **
 **                      J. Chem. Phys. 152, 194103 (2020)                    **
 **                                                                           **
 *******************************************************************************


 TOTAL NUMBERS AND MAXIMUM NUMBERS

  Total number of            - Atomic kinds:                                   2
                             - Atoms:                                        225
                             - Shell sets:                                   225
                             - Shells:                                      1125
                             - Primitive Cartesian functions:               1127
                             - Cartesian basis functions:                   3145
                             - Spherical basis functions:                   2921

  Maximum angular momentum of- Orbital basis functions:                        2
                             - Local part of the GTH pseudopotential:          2
                             - Non-local part of the GTH pseudopotential:      0


 SCF PARAMETERS         Density guess:                                    ATOMIC
                        --------------------------------------------------------
                        max_scf:                                             300
                        max_scf_history:                                       0
                        max_diis:                                              4
                        --------------------------------------------------------
                        eps_scf:                                        3.00E-07
                        eps_scf_history:                                0.00E+00
                        eps_diis:                                       1.00E-01
                        eps_eigval:                                     1.00E-05
                        --------------------------------------------------------
                        level_shift [a.u.]:                             0.000000
                        added MOs                                       100    0
                        --------------------------------------------------------
                        Mixing method:                            BROYDEN_MIXING
                                                charge density mixing in g-space
                        --------------------------------------------------------
                        Smear method:                                FERMI_DIRAC
                        Electronic temperature [K]:                        300.0
                        Electronic temperature [a.u.]:                  9.50E-04
                        Accuracy threshold:                             1.00E-10
                        --------------------------------------------------------
                        Outer loop SCF in use 
                        No variables optimised in outer loop
                        eps_scf                                         1.00E-06
                        max_scf                                              300
                        DIIS optimization
                        DIIS buffer length                                     3
                        step_size                                       5.00E-01

 Number of electrons:                                                        896
 Number of occupied orbitals:                                                448
 Number of molecular orbitals:                                               548

 Number of orbital functions:                                               2921
 Number of independent orbital functions:                                   2921

 Extrapolation method: initial_guess


 SCF WAVEFUNCTION OPTIMIZATION

  Step     Update method      Time    Convergence         Total energy    Change
  ------------------------------------------------------------------------------
     1 NoMix/Diag. 0.10E+00  117.9     0.92855250     -1265.9121593170 -1.27E+03
     2 Broy./Diag. 0.10E+00  130.0     0.26385968     -1214.9868943371  5.09E+01
     3 Broy./Diag. 0.10E+00  204.7     0.05346095     -1222.9721872205 -7.99E+00
     4 Broy./Diag. 0.10E+00  188.4     0.14681057     -1255.9636295345 -3.30E+01
     5 Broy./Diag. 0.10E+00  203.0     0.12525061     -1269.1473090971 -1.32E+01
     6 Broy./Diag. 0.10E+00  188.3     0.08447948     -1270.0281296992 -8.81E-01
     7 Broy./Diag. 0.10E+00  180.7     0.04095053     -1270.7408515505 -7.13E-01
     8 Broy./Diag. 0.10E+00  180.7     0.01046122     -1271.6814415421 -9.41E-01
     9 Broy./Diag. 0.10E+00  186.7     0.01304978     -1272.1559214573 -4.74E-01
    10 Broy./Diag. 0.10E+00  180.6     0.01287989     -1272.5745207296 -4.19E-01
    11 Broy./Diag. 0.10E+00  163.8     0.00561601     -1272.7122233003 -1.38E-01
    12 Broy./Diag. 0.10E+00  147.6     0.00278090     -1272.9808526142 -2.69E-01
    13 Broy./Diag. 0.10E+00  196.5     0.00376000     -1273.2576370639 -2.77E-01
    14 Broy./Diag. 0.10E+00  202.6     0.00364970     -1273.3392297106 -8.16E-02
    15 Broy./Diag. 0.10E+00  194.6     0.00595598     -1273.3662521845 -2.70E-02
    16 Broy./Diag. 0.10E+00  178.0     0.00473255     -1273.4235843919 -5.73E-02
    17 Broy./Diag. 0.10E+00  187.9     0.00142504     -1273.5107426652 -8.72E-02
    18 Broy./Diag. 0.10E+00  192.2     0.00059106     -1273.5700109520 -5.93E-02
    19 Broy./Diag. 0.10E+00  185.0     0.00087951     -1273.5780971357 -8.09E-03
    20 Broy./Diag. 0.10E+00  167.8     0.00044632     -1273.5858035579 -7.71E-03
    21 Broy./Diag. 0.10E+00  167.2     0.00079279     -1273.5559321639  2.99E-02
    22 Broy./Diag. 0.10E+00  191.8     0.00094191     -1273.5467989132  9.13E-03
    23 Broy./Diag. 0.10E+00  183.0     0.00054054     -1273.5642454072 -1.74E-02
    24 Broy./Diag. 0.10E+00  175.9     0.00045329     -1273.5806130618 -1.64E-02
    25 Broy./Diag. 0.10E+00  176.2     0.00076298     -1273.6053608097 -2.47E-02
    26 Broy./Diag. 0.10E+00  164.2     0.00083442     -1273.6201504007 -1.48E-02
    27 Broy./Diag. 0.10E+00  174.7     0.00062619     -1273.6261267633 -5.98E-03
    28 Broy./Diag. 0.10E+00  179.0     0.00079810     -1273.6338521673 -7.73E-03
    29 Broy./Diag. 0.10E+00  156.3     0.00062753     -1273.6402183081 -6.37E-03
    30 Broy./Diag. 0.10E+00  204.9     0.00016932     -1273.6476832080 -7.46E-03
    31 Broy./Diag. 0.10E+00  189.6     0.00012536     -1273.6508460428 -3.16E-03
    32 Broy./Diag. 0.10E+00  181.0     0.00016338     -1273.6537912202 -2.95E-03
    33 Broy./Diag. 0.10E+00  178.7     0.00015350     -1273.6567009779 -2.91E-03
    34 Broy./Diag. 0.10E+00  159.7     0.00017924     -1273.6597303877 -3.03E-03
    35 Broy./Diag. 0.10E+00  176.0     0.00023203     -1273.6629423336 -3.21E-03
    36 Broy./Diag. 0.10E+00  192.1     0.00021278     -1273.6665612493 -3.62E-03
    37 Broy./Diag. 0.10E+00  181.6     0.00022981     -1273.6671848495 -6.24E-04
    38 Broy./Diag. 0.10E+00  192.6     0.00024174     -1273.6668893426  2.96E-04
    39 Broy./Diag. 0.10E+00  157.9     0.00022297     -1273.6656051729  1.28E-03
    40 Broy./Diag. 0.10E+00  203.2     0.00016270     -1273.6633772419  2.23E-03
    41 Broy./Diag. 0.10E+00  180.3     0.00006751     -1273.6615209170  1.86E-03
    42 Broy./Diag. 0.10E+00  193.8     0.00006522     -1273.6596352130  1.89E-03
    43 Broy./Diag. 0.10E+00  198.1     0.00004526     -1273.6581695692  1.47E-03
    44 Broy./Diag. 0.10E+00  192.5     0.00003833     -1273.6568507064  1.32E-03
    45 Broy./Diag. 0.10E+00  180.0     0.00004984     -1273.6554295138  1.42E-03
    46 Broy./Diag. 0.10E+00  175.4     0.00004021     -1273.6543436653  1.09E-03
    47 Broy./Diag. 0.10E+00  204.4     0.00004860     -1273.6541488309  1.95E-04
    48 Broy./Diag. 0.10E+00  188.4     0.00006149     -1273.6542791512 -1.30E-04
    49 Broy./Diag. 0.10E+00  172.2     0.00005141     -1273.6547401823 -4.61E-04
    50 Broy./Diag. 0.10E+00  167.3     0.00003734     -1273.6554402598 -7.00E-04
    51 Broy./Diag. 0.10E+00  219.5     0.00001754     -1273.6561026144 -6.62E-04
    52 Broy./Diag. 0.10E+00  180.3     0.00002210     -1273.6571443955 -1.04E-03
[...]
    37 Broy./Diag. 0.10E+00   15.7     0.00000065     -1320.7129566342  4.80E-09
    38 Broy./Diag. 0.10E+00   15.7     0.00000042     -1320.7129565569  7.73E-08
    39 Broy./Diag. 0.10E+00   15.7     0.00000032     -1320.7129565356  2.13E-08
    40 Broy./Diag. 0.10E+00   15.6     0.00000026     -1320.7129565038  3.17E-08

  *** SCF run converged in    40 steps ***


  Electronic density on regular grids:       -904.0003223427       -0.0003223427
  Core density on regular grids:              904.9999999992       -0.0000000008
  Total charge density on r-space grids:        0.9996776565
  Total charge density g-space grids:           0.9996776565

  Overlap energy of the core charge distribution:               0.00005632564276
  Self energy of the core charge distribution:              -3083.64826578983366
  Core Hamiltonian energy:                                    967.41525250186260
  Hartree energy:                                            1193.83211739025410
  Exchange-correlation energy:                               -398.04117875005261
  Dispersion energy:                                           -0.26397182572476
  Electronic entropic energy:                                  -0.00696635554214
  Fermi energy:                                                -0.17113429538108

  Total energy:                                             -1320.71295650384786

  outer SCF iter =    1 RMS gradient =   0.26E-06 energy =      -1320.7129565038
  outer SCF loop converged in   1 iterations or   40 steps


 *** WARNING in qs_loc_utils.F:1500 :: User requested the calculation of ***
 *** the localized wavefunction but the section LOCALIZE was not         ***
 *** specified. Localization will not be performed!                      ***


 ENERGY| Total FORCE_EVAL ( QS ) energy [a.u.]:            -1320.712956503847863

 -------------------------------------------------------------------------------
 -                                                                             -
 -                                DBCSR STATISTICS                             -
 -                                                                             -
 -------------------------------------------------------------------------------
 COUNTER                                    TOTAL       BLAS       SMM       ACC
 flops     9 x     8 x     9               356400     100.0%      0.0%      0.0%
 flops     9 x    32 x     9             24235200     100.0%      0.0%      0.0%
 flops     9 x     8 x    13             79004016     100.0%      0.0%      0.0%
 flops    13 x     8 x     9             79004016     100.0%      0.0%      0.0%
 flops     9 x     9 x   136             87334848     100.0%      0.0%      0.0%
 flops     9 x     9 x   160            102746880     100.0%      0.0%      0.0%
 flops     9 x     9 x   128            164395008     100.0%      0.0%      0.0%
 flops    13 x    32 x     9           5372273088     100.0%      0.0%      0.0%
 flops     9 x    32 x    13           5372273088     100.0%      0.0%      0.0%
 flops     9 x    13 x   136           9542139984     100.0%      0.0%      0.0%
 flops    13 x     9 x   136           9819008784     100.0%      0.0%      0.0%
 flops     9 x    13 x   160          11226047040     100.0%      0.0%      0.0%
 flops    13 x     9 x   160          11551775040     100.0%      0.0%      0.0%
 flops     9 x    13 x   128          17961675264     100.0%      0.0%      0.0%
 flops    13 x     9 x   128          18482840064     100.0%      0.0%      0.0%
 flops    13 x     8 x    13          21308601600     100.0%      0.0%      0.0%
 flops    13 x    32 x    13        1448984908800     100.0%      0.0%      0.0%
 flops    13 x    13 x   136        2631215674880     100.0%      0.0%      0.0%
 flops    13 x    13 x   160        3095547852800     100.0%      0.0%      0.0%
 flops    13 x    13 x   128        4952876564480     100.0%      0.0%      0.0%
 flops inhomo. stacks                           0       0.0%      0.0%      0.0%
 flops total                        12.239799E+12     100.0%      0.0%      0.0%
 flops max/rank                    829.611956E+09     100.0%      0.0%      0.0%
 matmuls inhomo. stacks                         0       0.0%      0.0%      0.0%
 matmuls total                          374781482     100.0%      0.0%      0.0%
 number of processed stacks                543344     100.0%      0.0%      0.0%
 average stack size                                   689.8       0.0       0.0
 marketing flops                    33.840981E+12
 -------------------------------------------------------------------------------
 # multiplications                           4239
 max memory usage/rank               1.920541E+09
 # max total images/rank                        1
 # max 3D layers                                1
 # MPI messages exchanged                  406944
 MPI messages size (bytes):
  total size                       349.637345E+09
  min size                         745.472000E+03
  max size                           2.633720E+06
  average size                     859.178062E+03
 MPI breakdown and total messages size (bytes):
             size <=      128                   0                        0
       128 < size <=     8192                   0                        0
      8192 < size <=    32768                   0                        0
     32768 < size <=   131072                   0                        0
    131072 < size <=  4194304              406944             349635286872
   4194304 < size <= 16777216                   0                        0
  16777216 < size                               0                        0
 -------------------------------------------------------------------------------
 -                                                                             -
 -                      DBCSR MESSAGE PASSING PERFORMANCE                      -
 -                                                                             -
 -------------------------------------------------------------------------------
 ROUTINE             CALLS      AVE VOLUME [Bytes]
 MP_Bcast               21                     12.
 MP_Allreduce        28519                      8.
 MP_Alltoall        116095                 660533.
 MP_ISend            67824                 330179.
 MP_IRecv            67824                 309102.
 -------------------------------------------------------------------------------

 -------------------------------------------------------------------------------
 -                                                                             -
 -                                DBM STATISTICS                               -
 -                                                                             -
 -------------------------------------------------------------------------------
    M  x    N  x    K                                          COUNT     PERCENT
 -------------------------------------------------------------------------------

 -------------------------------------------------------------------------------
 -                                                                             -
 -                                GRID STATISTICS                              -
 -                                                                             -
 -------------------------------------------------------------------------------
 LP    KERNEL             BACKEND                              COUNT     PERCENT
 4     collocate ortho    REF                              461800544      49.38%
 4     integrate ortho    REF                              455025661      48.66%
 5     integrate ortho    REF                                6735576       0.72%
 3     collocate ortho    REF                                5412765       0.58%
 3     integrate ortho    REF                                5335359       0.57%
 0     collocate general  REF                                 208800       0.02%
 1     integrate general  REF                                 205200       0.02%
 2     collocate ortho    REF                                 191492       0.02%
 2     integrate ortho    REF                                 188650       0.02%
 -------------------------------------------------------------------------------

 MEMORY| Estimated peak process memory [MiB]                                1832

 -------------------------------------------------------------------------------
 -                                                                             -
 -                         MESSAGE PASSING PERFORMANCE                         -
 -                                                                             -
 -------------------------------------------------------------------------------

 ROUTINE             CALLS      AVE VOLUME [Bytes]
 MP_Group                4
 MP_Bcast             8166                  46379.
 MP_Allreduce        46102                    234.
 MP_Sync              4082
 MP_Alltoall         51609               63055770.
 MP_SendRecv        167544                 466196.
 MP_ISendRecv       117210                 444928.
 MP_Wait            290405
 MP_comm_split         114
 MP_ISend           125960                3217283.
 MP_IRecv           125960                3217285.
 MP_Recv              4640                 608989.
 -------------------------------------------------------------------------------


 -------------------------------------------------------------------------------
 -                                                                             -
 -                           R E F E R E N C E S                               -
 -                                                                             -
 -------------------------------------------------------------------------------
 
 CP2K version 2023.1, the CP2K developers group (2023).
 CP2K is freely available from https://www.cp2k.org/ .

 Kuehne,Thomas D.; Iannuzzi,Marcella; Del Ben,Mauro;
 Rybkin,Vladimir V.; Seewald,Patrick; Stein,Frederick; Laino,Teodoro;
 Khaliullin,Rustam Z.; Schuett,Ole; Schiffmann,Florian; Golze,Dorothea;
 Wilhelm,Jan; Chulkov,Sergey; Bani-Hashemian,Mohammad Hossein;
 Weber,Valery; Borstnik,Urban; Taillefumier,Mathieu;
 Jakobovits,Alice Shoshana; Lazzaro,Alfio; Pabst,Hans; Mueller,Tiziano;
 Schade,Robert; Guidon,Manuel; Andermatt,Samuel; Holmberg,Nico;
 Schenter,Gregory K.; Hehn,Anna; Bussy,Augustin; Belleflamme,Fabian;
 Tabacchi,Gloria; Gloess,Andreas; Lass,Michael; Bethune,Iain;
 Mundy,Christopher J.; Plessl,Christian; Watkins,Matt;
 VandeVondele,Joost; Krack,Matthias; Hutter,Juerg. 
 The Journal of Chemical Physics, 152 (19), (2020). 
 CP2K: An electronic structure and molecular dynamics software package -
 Quickstep: Efficient and accurate electronic structure calculations.
 https://doi.org/10.1063/5.0007045

 Goerigk, Lars; Hansen, Andreas; Bauer, Christoph; Ehrlich, Stephan;
 Najibi, Asim; Grimme, Stefan. , 19 (48), (2017). 
 A look at the density functional theory zoo with the advanced GMTKN55 database
 for general main group thermochemistry, kinetics and noncovalent interactions.
 https://doi.org/10.1039/C7CP04913G

 Schuett, Ole; Messmer, Peter; Hutter, Juerg; VandeVondele, Joost. 
 Electronic Structure Calculations on Graphics Processing Units, John
 Wiley & Sons, Ltd, 173-190 (2016). 
 GPU-Accelerated Sparse Matrix-Matrix Multiplication for
 Linear Scaling Density Functional Theory.
 https://doi.org/10.1002/9781118670712.ch8

 Borstnik, U; VandeVondele, J; Weber, V; Hutter, J. 
 PARALLEL COMPUTING, 40 (5-6), 47-58 (2014). 
 Sparse matrix multiplication: The distributed block-compressed sparse
 row library.
 https://doi.org/10.1016/j.parco.2014.03.012

 Hutter, J; Iannuzzi, M; Schiffmann, F; VandeVondele, J. 
 WIREs Comput Mol Sci., 4 (1), 15-25 (2014). 
 CP2K: atomistic simulations of condensed matter systems.
 https://doi.org/10.1002/wcms.1159

 Marek, A; Blum, V; Johanni, R; Havu, V; Lang, B; Auckenthaler, T;
 Heinecke, A; Bungartz, H; Lederer, H. 
 Journal of Physics: Condensed Matter, 26 (21), (2014). 
 The ELPA library: scalable parallel eigenvalue solutions for
 electronic structure
 theory and computational science.
 https://doi.org/10.1088/0953-8984/26/21/213201

 Grimme, S; Ehrlich, S; Goerigk, L. 
 JOURNAL OF COMPUTATIONAL CHEMISTRY, 32, 1456 (2011). 
 Effect of the damping function in dispersion corrected density functional theory.
 https://doi.org/10.1002/jcc.21759

 Grimme, S; Antony, J; Ehrlich, S; Krieg, H. 
 JOURNAL OF CHEMICAL PHYSICS, 132 (15), 154104 (2010). 
 A consistent and accurate ab initio parametrization of density
 functional dispersion correction (DFT-D) for the 94 elements H-Pu.
 https://doi.org/10.1063/1.3382344

 VandeVondele, J; Hutter, J. 
 JOURNAL OF CHEMICAL PHYSICS, 127 (11), 114105 (2007). 
 Gaussian basis sets for accurate calculations on molecular systems in
 gas and condensed phases.
 https://doi.org/10.1063/1.2770708

 Kuhne, TD; Krack, M; Mohamed, FR; Parrinello, M. 
 PHYSICAL REVIEW LETTERS, 98 (6), 066401 (2007). 
 Efficient and accurate Car-Parrinello-like approach to
 Born-Oppenheimer molecular dynamics.
 https://doi.org/10.1103/PhysRevLett.98.066401

 Krack, M. 
 THEORETICAL CHEMISTRY ACCOUNTS, 114 (1-3), 145-152 (2005). 
 Pseudopotentials for H to Kr optimized for gradient-corrected
 exchange-correlation functionals.
 https://doi.org/10.1007/s00214-005-0655-y

 VandeVondele, J; Krack, M; Mohamed, F; Parrinello, M; Chassaing, T;
 Hutter, J. COMPUTER PHYSICS COMMUNICATIONS, 167 (2), 103-128 (2005). 
 QUICKSTEP: Fast and accurate density functional calculations using a
 mixed Gaussian and plane waves approach.
 https://doi.org/10.1016/j.cpc.2004.12.014

 Frigo, M; Johnson, SG. 
 PROCEEDINGS OF THE IEEE, 93 (2), 216-231 (2005). 
 The design and implementation of FFTW3.
 https://doi.org/10.1109/JPROC.2004.840301

 Kolafa, J. 
 JOURNAL OF COMPUTATIONAL CHEMISTRY, 25 (3), 335-342 (2004). 
 Time-reversible always stable predictor-corrector method for
 molecular dynamics of polarizable molecules.
 https://doi.org/10.1002/jcc.10385

 Hartwigsen, C; Goedecker, S; Hutter, J. 
 PHYSICAL REVIEW B, 58 (7), 3641-3662 (1998). 
 Relativistic separable dual-space Gaussian pseudopotentials from H to Rn.
 https://doi.org/10.1103/PhysRevB.58.3641

 Lippert, G; Hutter, J; Parrinello, M. 
 MOLECULAR PHYSICS, 92 (3), 477-487 (1997). 
 A hybrid Gaussian and plane wave density functional scheme.
 https://doi.org/10.1080/002689797170220

 Perdew, JP; Burke, K; Ernzerhof, M. 
 PHYSICAL REVIEW LETTERS, 77 (18), 3865-3868 (1996). 
 Generalized gradient approximation made simple.
 https://doi.org/10.1103/PhysRevLett.77.3865

 Goedecker, S; Teter, M; Hutter, J. 
 PHYSICAL REVIEW B, 54 (3), 1703-1710 (1996). 
 Separable dual-space Gaussian pseudopotentials.
 https://doi.org/10.1103/PhysRevB.54.1703


 -------------------------------------------------------------------------------
 -                                                                             -
 -                                T I M I N G                                  -
 -                                                                             -
 -------------------------------------------------------------------------------
 SUBROUTINE                       CALLS  ASD         SELF TIME        TOTAL TIME
                                MAXIMUM       AVERAGE  MAXIMUM  AVERAGE  MAXIMUM
 CP2K                                 1  1.0     0.02     0.03 88731.15 88731.15
 cp_geo_opt                           1  2.0     0.00     0.00 88729.88 88729.88
 geoopt_bfgs                          1  3.0     0.04     0.06 88729.88 88729.88
 cp_eval_at                          58  4.0     0.01     0.01 88684.04 88684.05
 qs_energies                         58  6.0     0.01     0.02 88208.73 88209.25
 qs_forces                           57  5.0     0.01     0.01 88057.03 88057.04
 scf_env_do_scf                      58  7.0     0.01     0.03 87505.36 87513.46
 scf_env_do_scf_inner_loop         3850  8.0     0.23     0.56 87505.28 87513.38
 qs_scf_new_mos                    3850  9.0     0.09     0.13 40890.65 40922.11
 eigensolver                       3850 10.0     0.49     0.60 39780.81 39792.65
 cp_fm_diag_elpa                   3964 10.9     0.05     0.06 26241.58 26253.32
 cp_fm_diag_elpa_base              3964 11.9 26107.82 26149.44 26190.19 26202.01
 rebuild_ks_matrix                 3907  9.9     0.03     0.05 22069.64 22076.86
 qs_ks_build_kohn_sham_matrix      3907 10.9     0.97     1.09 22069.60 22076.83
 qs_ks_update_qs_env               3850  9.0     0.05     0.06 21688.08 21696.94
 qs_rho_update_rho_low             3908  9.0     0.04     0.05 17122.96 17127.64
 calculate_rho_elec                3908 10.0    48.40    51.51 17122.92 17127.60
 density_rs2pw                     3908 11.0     0.44     0.53 13619.22 15628.34
 sum_up_and_integrate              3907 11.9   147.71   159.87 14409.56 14418.19
 integrate_v_rspace                3907 12.9     0.29     0.34 14261.84 14270.29
 cp_fm_triangular_multiply        11550 11.0 13544.08 13568.81 13544.08 13568.81
 rs_pw_transfer                   31375 13.5     0.99     1.12  9809.09 11804.00
 pw_transfer                      50739 12.9     8.90    10.06 11284.04 11455.26
 fft_wrap_pw1pw2                  42925 13.9     0.92     1.03 11017.72 11179.87
 grid_collocate_task_list          3908 11.0  3225.15 10895.52  3225.15 10895.52
 mp_waitany                      125960 15.4  8496.79 10530.78  8496.79 10530.78
 rs_pw_transfer_RS2PW_150          3966 13.0   180.67   235.57  6626.68 10369.48
 grid_integrate_task_list          3907 13.9  2833.24 10277.04  2833.24 10277.04
 fft_wrap_pw1pw2_150              19480 14.2   898.79   942.98  9926.05 10239.86
 mp_alltoall_d11v                 57579 13.3  8101.75 10015.28  8101.75 10015.28
 rs_gather_matrices                3907 13.9     7.29     8.21  7901.33  9812.99
 fft3d_ps                         42925 15.9  4089.98  4410.52  7972.83  8264.64
 gspace_mixing                     3792  9.0    47.02    50.21  7924.17  7924.65
 rs_pw_transfer_RS2PW_50           3908 13.0    54.96    68.96  1925.52  7180.21
 broyden_mixing                    3792 10.0  5351.03  5550.97  5808.64  5878.36
 qs_vxc_create                     3907 11.9     0.16     0.20  4636.82  4714.40
 xc_vxc_pw_create                  3907 12.9   112.19   142.60  4636.66  4714.24
 potential_pw2rs                   3907 13.9     3.59     3.95  3526.37  3538.27
 xc_rho_set_and_dset_create        3907 13.9   150.53   180.70  3090.20  3495.53
 x_to_yz                          23328 17.1  1324.37  1447.03  2315.31  2582.71
 xc_functional_eval                3907 14.9     0.11     0.13  2108.78  2549.51
 pbe_lda_eval                      3907 15.9  2108.67  2549.41  2108.67  2549.41
 xc_pw_derive                     23442 14.9     0.17     0.24  1834.83  2343.59
 pw_nn_compose_r                  23442 15.9   722.02   833.12  1834.66  2343.42
 mp_alltoall_z22v                 42925 17.9  1780.35  2321.35  1780.35  2321.35
 yz_to_x                          19597 16.6   776.18   829.07  1565.58  1779.99
 -------------------------------------------------------------------------------

 The number of warnings for this run is : 58
 
 -------------------------------------------------------------------------------
  **** **** ******  **  PROGRAM ENDED AT                 2025-03-19 11:56:53.131
 ***** ** ***  *** **   PROGRAM RAN ON                                sebnode125
 **    ****   ******    PROGRAM RAN BY                                    luehrs
 ***** **    ** ** **   PROGRAM PROCESS ID                               1119352
  **** **  *******  **  PROGRAM STOPPED IN /home/luehrs/PhD/Sodium_batteries/Sod
                                           ium-graphene-curvature/Curved_surface
                                           _concave/Zig-Zag2
