      90
 i =      175, E =      -563.0926482722
  C         0.7269532295       -1.4092753402        1.4140597715
  C         4.9967955022       -8.5985044597       -0.4978844200
  C         7.8394178960       -8.5082090823       -0.8578143862
  C         0.6929598839      -11.0247961203       -0.9135985285
  C         5.6924627150       -0.1819719140        1.6308320792
  C         7.1282168942       -0.1720493656        1.4975637444
  C         7.8112156177       -1.3933087834        1.0986222390
  C         3.5712283614       -6.2134662482        0.1458694771
  C         2.7575260169      -12.1479606463       -1.0295546753
  C         7.0245874584      -11.9924613880       -1.7025004870
  C         3.5768765855       -8.6216093641       -0.3811975674
  C         7.1246781426       -9.7209720610       -1.1000314392
  C         4.9976858133       -6.1969712792        0.0618913228
  C         2.8605871238       -5.0108729498        0.4578610717
  C         7.1294540616       -7.3409232950       -0.4436491576
  C         1.4323355597       -5.0018981594        0.4500392875
  C         5.8100364123      -12.0564315633       -1.4547334570
  C         2.8620247806       -7.4135190413       -0.1020170755
  C         5.7058631789       -7.3777482263       -0.2924773212
  C         5.7120528373       -9.7792549726       -0.8688652482
  C         7.1230504234       -2.5932524560        0.8294742353
  C         5.7129681752       -2.6113133259        0.9434433065
  C         5.0526964936       -1.3907027049        1.3402329966
  C         3.6317383604       -1.4424980996        1.4124484642
  C         2.8103824866       -0.3694208317        1.7446494010
  C         1.5596382858       -0.3363360931        1.7474504287
  C         1.5169547675      -12.1381021879       -1.0600814020
  C         0.7199905241       -6.1936665732        0.1241548763
  C         7.8458113909      -10.8752988156       -1.5641620919
  C         1.4283514086       -7.4056805236       -0.1176283175
  C         0.7145539654       -8.6022584757       -0.4189409565
  C         7.8348214742       -3.7619350835        0.4566289431
  C         1.4274438712       -9.8286425483       -0.6121953107
  C         2.8589971189       -9.8385341970       -0.5863702748
  C         3.5931444382      -11.0479179759       -0.8566586162
  C         4.9904000552      -11.0100601100       -1.0345963091
  C         0.7244803193       -3.7961938731        0.7407327158
  C         7.8375550526       -6.1398647912       -0.1870241029
  C         7.1253801428       -4.9662463141        0.1909978081
  C         5.7087786945       -4.9889932436        0.3051747861
  C         5.0048864761       -3.7994852322        0.6744036968
  C         3.5746494916       -3.8197974156        0.7487916081
  C         2.8752234324       -2.6279978679        1.0978964008
  C         1.4455491427       -2.6175033806        1.0963057584
  C         9.2021507361       -1.3621350634        1.0166687907
  C        13.5424612260       -8.4703222791       -0.9185847574
  C        16.3811742971       -8.5640405580       -0.5607976744
  C         9.2378276061      -10.8096084035       -1.7730616865
  C        14.3324629542       -0.2795165862        1.4663679213
  C        15.5697456357       -0.2975668336        1.5691741368
  C        16.4068738478       -1.3874790768        1.3292967583
  C        12.1146595193       -6.0899223212       -0.2916620689
  C        11.3105863520      -11.8256265674       -2.2330844440
  C        15.5723627721      -12.0056905298       -1.5758453114
  C        12.1208895144       -8.4440398296       -1.0295650448
  C        15.6679350057       -9.7376465516       -0.9573545904
  C        13.5408321362       -6.1056172565       -0.2092976283
  C        11.3999533690       -4.8986225075        0.0276122269
  C        15.6732972959       -7.3430541746       -0.3440164242
  C         9.9757225122       -4.9138048734        0.0290135318
  C        14.3596670908      -11.9380060508       -1.8323323597
  C        11.4052550187       -7.2634491544       -0.6718210130
  C        14.2497508378       -7.3061878441       -0.4895136248
  C        14.2577213766       -9.6758710448       -1.1908304023
  C        15.6682838245       -2.5665797033        0.9377466552
  C        14.2397892285       -2.5400402518        0.8295010092
  C        13.4920853907       -1.3306210812        1.1031227731
  C        12.0870787674       -1.3032887458        1.0230150345
  C        11.2800139026       -0.1799903927        1.3071737782
  C        10.0313025105       -0.2867298857        1.2834393640
  C        10.0699422570      -11.8401280034       -2.2033065079
  C         9.2634686416       -6.1092162513       -0.2796890954
  C        16.3881179126      -10.9704653229       -1.1311782635
  C         9.9734172834       -7.2757055692       -0.6610102138
  C         9.2573523823       -8.4655063048       -0.9951106634
  C        16.3822014819       -3.7723948172        0.6597571032
  C         9.9720740975       -9.6196710553       -1.4347073336
  C        11.4039022188       -9.6049892293       -1.4602696359
  C        12.1407239924      -10.7813207967       -1.8350474562
  C        13.5387994004      -10.8268024711       -1.6664679564
  C         9.2582497241       -3.7350329747        0.3767017529
  C        16.3806476134       -6.1665684973        0.0276738292
  C        15.6712196775       -4.9541356070        0.2851432661
  C        14.2482124327       -4.9271826328        0.1772177271
  C        13.5337206298       -3.7212414835        0.4538946297
  C        12.1067388874       -3.7062331478        0.3775563313
  C        11.3850148931       -2.5125263744        0.6752931542
  C         9.9597680162       -2.5393291706        0.6708475260
  O         7.8304906518        0.8772739888        1.7275236539
 Na         5.9324482547        2.1095113798        2.2685713548
