     225
 i =      227, E =     -1316.3395694845
  C         8.6361174996       14.9509314690        3.6006037531
  C         8.6243084123       14.9325204584        0.0238803969
  C         9.8645875262       15.6695245643        3.6125089807
  C         9.8534591149       15.6516417425        0.0219199316
  C        11.0911507092       14.9512634673        3.6877861382
  C        11.0799565308       14.9334855638       -0.0385234722
  C        12.3202498786       15.6703454583        3.6528517101
  C        12.3095344509       15.6524461647       -0.0219637199
  C        13.5475414209       14.9513829432        3.6864895358
  C        13.5362384832       14.9337295640       -0.0572076530
  C        14.7755219857       15.6693883620        3.6059111451
  C        14.7657636578       15.6521834967       -0.0240478337
  C        16.0029034696       14.9511301680        3.5939572236
  C        15.9920369573       14.9327052725       -0.0380650872
  C        17.2313359369       15.6692758287        3.5281210747
  C        17.2213976505       15.6518112852       -0.0292614323
  C        18.4579398205       14.9492844260        3.5150895666
  C        18.4476107248       14.9320757910       -0.0291742438
  C        19.6874377158       15.6682408245        3.5022102725
  C        19.6767104218       15.6522075610       -0.0255559298
  C        20.9147824968       14.9488427412        3.5058288631
  C        20.9034927390       14.9349422572        0.0007625069
  C        22.1440989241       15.6681712116        3.5078030120
  C        22.1332084643       15.6522554426        0.0198456819
  C        23.3716162144       14.9486420376        3.5109187884
  C        23.3596027892       14.9321577557        0.0411488094
  C        24.6004929691       15.6683679107        3.5119683446
  C        24.5887901054       15.6514326323        0.0476881148
  C        25.8282562391       14.9491377577        3.5264994893
  C        25.8159476178       14.9321226561        0.0492419456
  C        27.0567583457       15.6690756720        3.5407343150
  C        27.0450821459       15.6514741941        0.0492455731
  C        25.8195066827       13.5232564231        3.5399812869
  C        25.8059060677       13.5065693454        0.0404060303
  C        23.3624685047       13.5228609831        3.5125831964
  C        23.3492699888       13.5066969699        0.0464990385
  C        20.9053277295       13.5232160950        3.5083373787
  C        20.8925419539       13.5074081426        0.0221381495
  C        18.4485053105       13.5235971158        3.5311745204
  C        18.4371607504       13.5058492575       -0.0176435492
  C        15.9958345450       13.5272814948        3.6558352234
  C        15.9823791105       13.5068532157       -0.0695342723
  C        14.7683855155       12.8088994470        3.7818488377
  C        14.7540090315       12.7895834848       -0.1508949645
  C        13.5399894870       13.5282101032        3.7985551723
  C        13.5268927595       13.5099886701       -0.1491746474
  C        12.3092776261       12.8124396331        3.8884189548
  C        12.2964763276       12.7952305223       -0.2257198251
  C        11.0811207759       13.5278812864        3.7957201514
  C        11.0688577171       13.5101948483       -0.1363134246
  C         9.8511725054       12.8078231576        3.7764310927
  C         9.8392335222       12.7902290781       -0.1309634576
  C         8.6278759522       13.5270308666        3.6557275440
  C         8.6136352434       13.5074103036       -0.0290768757
  C         7.3988762784       12.8048974709        3.6021782349
  C         7.3849608248       12.7874072170       -0.0025918720
  C        24.5902273214       12.8033555729        3.5219231788
  C        24.5766443672       12.7873100264        0.0476511005
  C        22.1327476525       12.8038651555        3.5109798568
  C        22.1195590473       12.7876970430        0.0417235855
  C        19.6755419681       12.8042123365        3.5144152365
  C        19.6634442672       12.7859760856        0.0132480918
  C        17.2199225898       12.8053012643        3.5980723399
  C        17.2084634778       12.7861795092       -0.0441964688
  C        24.5808608841       11.3774465459        3.5268658252
  C        24.5675281224       11.3619543307        0.0460851085
  C        23.3505631969       10.6588594029        3.5160977120
  C        23.3379410044       10.6428206747        0.0509249015
  C        22.1231281293       11.3784161553        3.5116070537
  C        22.1102122287       11.3619840198        0.0481699734
  C        20.8932473705       10.6594872112        3.5106627329
  C        20.8807789415       10.6419438665        0.0447814666
  C        19.6657489004       11.3788139473        3.5166945777
  C        19.6525906933       11.3594978776        0.0282217854
  C        18.4360337777       10.6599384114        3.5455622758
  C        18.4222412418       10.6368714848        0.0002420710
  C        17.2098849736       11.3794537163        3.6141303467
  C        17.1986379296       11.3598342542       -0.0518040451
  C        15.9837111494       10.6605184023        3.7285903194
  C        15.9717769583       10.6418141300       -0.1404866628
  C        14.7623081918       11.3827255347        3.8542730867
  C        14.7491068197       11.3650030446       -0.2267189008
  C        13.5356978732       10.6629278702        4.0017110330
  C        13.5221175623       10.6473328735       -0.3542474429
  C        12.2992927235       11.3872188865        4.0130640231
  C        12.2874653965       11.3717754520       -0.3525239212
  C        11.0612839043       10.6624997898        3.9938356134
  C        11.0511734766       10.6477830699       -0.3458955991
  C         9.8370822395       11.3819900426        3.8452637120
  C         9.8259291216       11.3662528024       -0.2147218664
  C         8.6129375698       10.6595159329        3.7279611942
  C         8.6004428574       10.6436915630       -0.1298049820
  C         7.3882195389       11.3782463645        3.6203737148
  C         7.3755122193       11.3622468830       -0.0304943726
  C         6.1597194309       10.6569337232        3.5623172369
  C         6.1470589207       10.6427465190        0.0204922645
  C         6.1468218597        9.2288834498        3.5621041068
  C         6.1374373238        9.2176677156        0.0186896846
  C         7.3749725269        8.5130911900        3.6092451014
  C         7.3640011501        8.4984887430       -0.0367497879
  C         8.6021484274        9.2328827863        3.7158174332
  C         8.5907758518        9.2174608999       -0.1328112361
  C         9.8251547511        8.5103936443        3.8104968259
  C         9.8144111993        8.4954728533       -0.2203639217
  C        11.0510111777        9.2268471162        3.9766268894
  C        11.0415538082        9.2139201884       -0.3463059815
  C        12.2867212811        8.5021149702        3.9759075680
  C        12.2758650875        8.4899385581       -0.3503427323
  C        13.5252823894        9.2268670666        3.9819381767
  C        13.5122224673        9.2129272128       -0.3511029250
  C        14.7482276649        8.5106733170        3.8106126189
  C        14.7373438900        8.4936335767       -0.2210650899
  C        15.9731207414        9.2339508390        3.7120494970
  C        15.9624751397        9.2154774686       -0.1366878354
  C        17.1970835480        8.5153428430        3.5961008837
  C        17.1868315818        8.4954906811       -0.0398998561
  C        18.4258591754        9.2342805992        3.5413248743
  C        18.4146344552        9.2137165158        0.0083701856
  C        19.6532187965        8.5151518749        3.5152175551
  C        19.6431298631        8.4964233825        0.0390734892
  C        20.8829002426        9.2341350013        3.5112125892
  C        20.8719331825        9.2164245859        0.0472751727
  C        22.1099967208        8.5147106194        3.5128144099
  C        22.0996725870        8.4977096834        0.0500121252
  C        23.3395365499        9.2334776571        3.5165675644
  C        23.3287627899        9.2173606266        0.0504675722
  C        22.1003877681        7.0892051241        3.5135420442
  C        22.0914008324        7.0723218078        0.0492009249
  C        20.8712193086        6.3701781068        3.5127694507
  C        20.8625437337        6.3526065663        0.0484042228
  C        19.6437919141        7.0897551119        3.5145102845
  C        19.6349738643        7.0714580103        0.0425197281
  C        18.4146329358        6.3705807560        3.5225901685
  C        18.4060741967        6.3521522813        0.0317859297
  C        17.1871953755        7.0897718819        3.5671068523
  C        17.1787178834        7.0708542965       -0.0149784446
  C        15.9588490017        6.3701188830        3.5955131518
  C        15.9506165233        6.3513598230       -0.0448376669
  C        14.7336413775        7.0869285537        3.7080164830
  C        14.7248765506        7.0694285335       -0.1418031047
  C        13.5042395099        6.3663075636        3.7099535401
  C        13.4955509165        6.3501676818       -0.1509597249
  C        12.2769361955        7.0809617988        3.8110416100
  C        12.2678355543        7.0660913825       -0.2319709506
  C        11.0471709110        6.3667319217        3.7098725698
  C        11.0378666849        6.3507497837       -0.1617215100
  C         9.8199182466        7.0866368333        3.7099489078
  C         9.8101972115        7.0707138317       -0.1505448932
  C         8.5925964086        6.3693821915        3.5991853984
  C         8.5825257436        6.3530253948       -0.0577493981
  C         7.3656094867        7.0881090285        3.5769797363
  C         7.3561666955        7.0729994011       -0.0182637952
  C         6.1362893439        6.3693768086        3.5291019472
  C         6.1274646422        6.3537418057        0.0310795966
  C         4.9086756734        7.0877907663        3.5208489255
  C         4.9000358435        7.0728294862        0.0448041086
  C         4.9177566357        8.5126886148        3.5265452909
  C         4.9083472630        8.4983045518        0.0441588546
  C         3.6793674578        6.3692313902        3.5146768417
  C         3.6708962178        6.3532785991        0.0494982587
  C         3.6704240385        4.9439080079        3.5182728156
  C         3.6616519602        4.9276753150        0.0497788178
  C         4.8974186894        4.2246972378        3.5193994138
  C         4.8887512626        4.2085080303        0.0480912394
  C         6.1269729299        4.9439191020        3.5168706752
  C         6.1181248787        4.9279271396        0.0388635913
  C         7.3538374887        4.2251421599        3.5141001739
  C         7.3446398611        4.2084906447        0.0186315550
  C         8.5835088090        4.9446621444        3.5384688955
  C         8.5736710296        4.9274011480       -0.0272157152
  C         9.8097639369        4.2255425652        3.5358764195
  C         9.8002495532        4.2081946276       -0.0498638592
  C        11.0383026559        4.9439597169        3.5953654620
  C        11.0299990964        4.9261390263       -0.0925263252
  C        12.2635636628        4.2236126684        3.5633425264
  C        12.2565104557        4.2071827804       -0.0632400562
  C        13.4935651592        4.9432614886        3.5980156379
  C        13.4856582428        4.9260869911       -0.0695586541
  C        14.7209463668        4.2252919863        3.5424295584
  C        14.7124053637        4.2074694674       -0.0176033220
  C        15.9497246415        4.9450621000        3.5407948483
  C        15.9417792832        4.9262929605       -0.0006877750
  C        17.1771324199        4.2256134351        3.5148414924
  C        17.1682435286        4.2073451384        0.0370682576
  C        18.4059968273        4.9448554095        3.5143709782
  C        18.3969469775        4.9268154240        0.0432432099
  C        19.6334353011        4.2252671800        3.5153220323
  C        19.6242434954        4.2077396097        0.0510490568
  C        20.8623173788        4.9445974952        3.5164218343
  C        20.8532203239        4.9272069260        0.0496335547
  C        19.6243465116        2.7995054899        3.5267651042
  C        19.6149799151        2.7821812025        0.0535075012
  C        18.3958238852        2.0802867326        3.5217151486
  C        18.3860683950        2.0627223788        0.0538430959
  C        17.1683048525        2.7997220802        3.5109481940
  C        17.1587494692        2.7818998786        0.0473649834
  C        15.9398390025        2.0799724749        3.5099667223
  C        15.9298379329        2.0627405250        0.0405890250
  C        14.7123314713        2.7994310170        3.5148355012
  C        14.7028842076        2.7823247465        0.0143712776
  C        13.4836679623        2.0796723336        3.5110290621
  C        13.4742767017        2.0632661481        0.0020638050
  C        12.2560414687        2.7987426191        3.5167960342
  C        12.2471845538        2.7819844867       -0.0310017775
  C        11.0270556595        2.0796009627        3.5043936346
  C        11.0176693089        2.0633182337       -0.0352658993
  C         9.8004564766        2.7996831427        3.5060497741
  C         9.7910491211        2.7826650026       -0.0349385753
  C         8.5711121355        2.0804692759        3.5088937578
  C         8.5621384090        2.0634267081       -0.0185008983
  C         6.1146801643        2.0798298871        3.5458966245
  C         6.1065875677        2.0634014161        0.0166207226
  C         7.3440175701        2.7993227708        3.5150536766
  C         7.3355793284        2.7826470522        0.0114155523
  C         4.8877343849        2.7991274042        3.5428340731
  C         4.8797458937        2.7827043454        0.0369363553
  C         3.6588935161        2.0800051209        3.5782469468
  C         3.6505047070        2.0633076840        0.0290581681
  C         2.4316750240        2.7992905219        3.5497724583
  C         2.4233381791        2.7825442468        0.0453823096
  C         2.4412648461        4.2248249511        3.5237217176
  C         2.4324582295        4.2081411646        0.0498881845
  C         1.2033772293        2.0797967504        3.5579797504
  C         1.1943372370        2.0629885663        0.0469363609
 Na        12.3250361418        9.9546959510        1.8279364725
