 DBCSR| Multiplication driver                                               XSMM
 DBCSR| Multrec recursion limit                                              512
 DBCSR| Multiplication stack size                                           1000
 DBCSR| Maximum elements for images                                    UNLIMITED
 DBCSR| Multiplicative factor virtual images                                   1
 DBCSR| Multiplication size stacks                                             3
 DBCSR| Number of 3D layers                                               SINGLE
 DBCSR| Use MPI memory allocation                                              T
 DBCSR| Use RMA algorithm                                                      F
 DBCSR| Use Communication thread                                               T
 DBCSR| Communication thread load                                             87


  **** **** ******  **  PROGRAM STARTED AT               2024-08-14 13:28:44.162
 ***** ** ***  *** **   PROGRAM STARTED ON                            sebnode047
 **    ****   ******    PROGRAM STARTED BY                                luehrs
 ***** **    ** ** **   PROGRAM PROCESS ID                                344672
  **** **  *******  **  PROGRAM STARTED IN /home/luehrs/PhD/Sodium_batteries/Sod
                                           ium-graphene-interlayer/Zig_Zag_1

 CP2K| version string:                    CP2K version 7.0 (Development Version)
 CP2K| source code revision number:                                             
 CP2K| cp2kflags: libint fftw3 libxc parallel mpi3 scalapack xsmm libderiv_max_a
 CP2K|            m1=8 libint_max_am=9 max_contr=4
 CP2K| is freely available from                            https://www.cp2k.org/
 CP2K| Program compiled at                         Sun Jun 24 14:37:16 CEST 2018
 CP2K| Program compiled on                                            sebstorage
 CP2K| Program compiled for                                Linux-x86-64-gfortran
 CP2K| Data directory path    /home/brehm/Software_Batchnode/2018/Source/cp2k_18
 CP2K| Input file name                                         input.zig-zag.inp

 GLOBAL| Force Environment number                                              1
 GLOBAL| Basis set file name                                      ./BASIS_MOLOPT
 GLOBAL| Potential file name                                    ./GTH_POTENTIALS
 GLOBAL| MM Potential file name                                     MM_POTENTIAL
 GLOBAL| Coordinate file name           graphene_no_hydrogen_zig-zag_3.7_relaxed
 GLOBAL| Method name                                                        CP2K
 GLOBAL| Project name                               graphene_zig_zag_sodium_BSSE
 GLOBAL| Preferred FFT library                                             FFTW3
 GLOBAL| Preferred diagonalization lib.                                       SL
 GLOBAL| Run type                                                           BSSE
 GLOBAL| All-to-all communication in single precision                          F
 GLOBAL| FFTs using library dependent lengths                                  F
 GLOBAL| Global print level                                                  LOW
 GLOBAL| Total number of message passing processes                            16
 GLOBAL| Number of threads for this process                                    1
 GLOBAL| This output is from process                                           0
 GLOBAL| CPU model name :  Intel(R) Xeon(R) CPU E5-2630 v3 @ 2.40GHz

 MEMORY| system memory details [Kb]
 MEMORY|                        rank 0           min           max       average
 MEMORY| MemTotal             65838216      65838216      65838216      65838216
 MEMORY| MemFree              42823712      42823712      42823712      42823712
 MEMORY| Buffers                269132        269132        269132        269132
 MEMORY| Cached                6050624       6050624       6050624       6050624
 MEMORY| Slab                   708732        708732        708732        708732
 MEMORY| SReclaimable           457872        457872        457872        457872
 MEMORY| MemLikelyFree        49601340      49601340      49601340      49601340


 GENERATE|  Preliminary Number of Bonds generated:                             0
 GENERATE|  Achieved consistency in connectivity generation.

 *******************************************************************************
 *******************************************************************************
 **                                                                           **
 **     #####                         ##              ##                      **
 **    ##   ##            ##          ##              ##                      **
 **   ##     ##                       ##            ######                    **
 **   ##     ##  ##   ##  ##   #####  ##  ##   ####   ##    #####    #####    **
 **   ##     ##  ##   ##  ##  ##      ## ##   ##      ##   ##   ##  ##   ##   **
 **   ##  ## ##  ##   ##  ##  ##      ####     ###    ##   ######   ######    **
 **    ##  ###   ##   ##  ##  ##      ## ##      ##   ##   ##       ##        **
 **     #######   #####   ##   #####  ##  ##  ####    ##    #####   ##        **
 **           ##                                                    ##        **
 **                                                                           **
 **                                                ... make the atoms dance   **
 **                                                                           **
 **            Copyright (C) by CP2K developers group (2000 - 2018)           **
 **                                                                           **
 *******************************************************************************


 TOTAL NUMBERS AND MAXIMUM NUMBERS

  Total number of            - Atomic kinds:                                   2
                             - Atoms:                                        225
                             - Shell sets:                                   225
                             - Shells:                                      1125
                             - Primitive Cartesian functions:               1127
                             - Cartesian basis functions:                   3145
                             - Spherical basis functions:                   2921

  Maximum angular momentum of- Orbital basis functions:                        2
                             - Local part of the GTH pseudopotential:          2
                             - Non-local part of the GTH pseudopotential:      1


 SCF PARAMETERS         Density guess:                                    ATOMIC
                        --------------------------------------------------------
                        max_scf:                                             100
                        max_scf_history:                                       0
                        max_diis:                                              4
                        --------------------------------------------------------
                        eps_scf:                                        3.00E-07
                        eps_scf_history:                                0.00E+00
                        eps_diis:                                       1.00E-01
                        eps_eigval:                                     1.00E-05
                        --------------------------------------------------------
                        level_shift [a.u.]:                                 0.00
                        added MOs                                       100  100
                        --------------------------------------------------------
                        Mixing method:                            BROYDEN_MIXING
                                                charge density mixing in g-space
                        --------------------------------------------------------
                        Smear method:                                FERMI_DIRAC
                        Electronic temperature [K]:                        300.0
                        Electronic temperature [a.u.]:                  9.50E-04
                        Accuracy threshold:                             1.00E-10
                        --------------------------------------------------------
                        Outer loop SCF in use 
                        No variables optimised in outer loop
                        eps_scf                                         1.00E-06
                        max_scf                                               30
                        DIIS optimization
                        DIIS buffer length                                     3
                        step_size                                       5.00E-01

 -------------------------------------------------------------------------------
 -                                                                             -
 -  BSSE CALCULATION         FRAGMENT CONF: 10        FRAGMENT SUBCONF: 10     -
 -                           CHARGE =     0           MULTIPLICITY =     0     -
 -                                                                             -
 -                 ATOM INDEX                              ATOM NAME           -
 -                 ----------                              ---------           -
 -                      1                                   C                  -
 -                      2                                   C                  -
 -                      3                                   C                  -
 -                      4                                   C                  -
 -                      5                                   C                  -
 -                      6                                   C                  -
 -                      7                                   C                  -
 -                      8                                   C                  -
 -                      9                                   C                  -
 -                     10                                   C                  -
 -                     11                                   C                  -
 -                     12                                   C                  -
 -                     13                                   C                  -
 -                     14                                   C                  -
 -                     15                                   C                  -
 -                     16                                   C                  -
 -                     17                                   C                  -
 -                     18                                   C                  -
 -                     19                                   C                  -
 -                     20                                   C                  -
 -                     21                                   C                  -
 -                     22                                   C                  -
 -                     23                                   C                  -
 -                     24                                   C                  -
 -                     25                                   C                  -
 -                     26                                   C                  -
 -                     27                                   C                  -
 -                     28                                   C                  -
 -                     29                                   C                  -
 -                     30                                   C                  -
 -                     31                                   C                  -
 -                     32                                   C                  -
 -                     33                                   C                  -
 -                     34                                   C                  -
 -                     35                                   C                  -
 -                     36                                   C                  -
 -                     37                                   C                  -
 -                     38                                   C                  -
 -                     39                                   C                  -
 -                     40                                   C                  -
 -                     41                                   C                  -
 -                     42                                   C                  -
 -                     43                                   C                  -
 -                     44                                   C                  -
 -                     45                                   C                  -
 -                     46                                   C                  -
 -                     47                                   C                  -
 -                     48                                   C                  -
 -                     49                                   C                  -
 -                     50                                   C                  -
 -                     51                                   C                  -
 -                     52                                   C                  -
 -                     53                                   C                  -
 -                     54                                   C                  -
 -                     55                                   C                  -
 -                     56                                   C                  -
 -                     57                                   C                  -
 -                     58                                   C                  -
 -                     59                                   C                  -
 -                     60                                   C                  -
 -                     61                                   C                  -
 -                     62                                   C                  -
 -                     63                                   C                  -
 -                     64                                   C                  -
 -                     65                                   C                  -
 -                     66                                   C                  -
 -                     67                                   C                  -
 -                     68                                   C                  -
 -                     69                                   C                  -
 -                     70                                   C                  -
 -                     71                                   C                  -
 -                     72                                   C                  -
 -                     73                                   C                  -
 -                     74                                   C                  -
 -                     75                                   C                  -
 -                     76                                   C                  -
 -                     77                                   C                  -
 -                     78                                   C                  -
 -                     79                                   C                  -
 -                     80                                   C                  -
 -                     81                                   C                  -
 -                     82                                   C                  -
 -                     83                                   C                  -
 -                     84                                   C                  -
 -                     85                                   C                  -
 -                     86                                   C                  -
 -                     87                                   C                  -
 -                     88                                   C                  -
 -                     89                                   C                  -
 -                     90                                   C                  -
 -                     91                                   C                  -
 -                     92                                   C                  -
 -                     93                                   C                  -
 -                     94                                   C                  -
 -                     95                                   C                  -
 -                     96                                   C                  -
 -                     97                                   C                  -
 -                     98                                   C                  -
 -                     99                                   C                  -
 -                    100                                   C                  -
 -                    101                                   C                  -
 -                    102                                   C                  -
 -                    103                                   C                  -
 -                    104                                   C                  -
 -                    105                                   C                  -
 -                    106                                   C                  -
 -                    107                                   C                  -
 -                    108                                   C                  -
 -                    109                                   C                  -
 -                    110                                   C                  -
 -                    111                                   C                  -
 -                    112                                   C                  -
 -------------------------------------------------------------------------------

 *******************************************************************************
 *******************************************************************************
 **                                                                           **
 **     #####                         ##              ##                      **
 **    ##   ##            ##          ##              ##                      **
 **   ##     ##                       ##            ######                    **
 **   ##     ##  ##   ##  ##   #####  ##  ##   ####   ##    #####    #####    **
 **   ##     ##  ##   ##  ##  ##      ## ##   ##      ##   ##   ##  ##   ##   **
 **   ##  ## ##  ##   ##  ##  ##      ####     ###    ##   ######   ######    **
 **    ##  ###   ##   ##  ##  ##      ## ##      ##   ##   ##       ##        **
 **     #######   #####   ##   #####  ##  ##  ####    ##    #####   ##        **
 **           ##                                                    ##        **
 **                                                                           **
 **                                                ... make the atoms dance   **
 **                                                                           **
 **            Copyright (C) by CP2K developers group (2000 - 2018)           **
 **                                                                           **
 *******************************************************************************


 TOTAL NUMBERS AND MAXIMUM NUMBERS

  Total number of            - Atomic kinds:                                   1
                             - Atoms:                                        112
                             - Shell sets:                                   112
                             - Shells:                                       560
                             - Primitive Cartesian functions:                560
                             - Cartesian basis functions:                   1568
                             - Spherical basis functions:                   1456

  Maximum angular momentum of- Orbital basis functions:                        2
                             - Local part of the GTH pseudopotential:          2
                             - Non-local part of the GTH pseudopotential:      0


 SCF PARAMETERS         Density guess:                                    ATOMIC
                        --------------------------------------------------------
                        max_scf:                                             100
                        max_scf_history:                                       0
                        max_diis:                                              4
                        --------------------------------------------------------
                        eps_scf:                                        3.00E-07
                        eps_scf_history:                                0.00E+00
                        eps_diis:                                       1.00E-01
                        eps_eigval:                                     1.00E-05
                        --------------------------------------------------------
                        level_shift [a.u.]:                                 0.00
                        added MOs                                       100  100
                        --------------------------------------------------------
                        Mixing method:                            BROYDEN_MIXING
                                                charge density mixing in g-space
                        --------------------------------------------------------
                        Smear method:                                FERMI_DIRAC
                        Electronic temperature [K]:                        300.0
                        Electronic temperature [a.u.]:                  9.50E-04
                        Accuracy threshold:                             1.00E-10
                        --------------------------------------------------------
                        Outer loop SCF in use 
                        No variables optimised in outer loop
                        eps_scf                                         1.00E-06
                        max_scf                                               30
                        DIIS optimization
                        DIIS buffer length                                     3
                        step_size                                       5.00E-01

 Spin 1

 Number of electrons:                                                        224
 Number of occupied orbitals:                                                224
 Number of molecular orbitals:                                               324

 Spin 2

 Number of electrons:                                                        224
 Number of occupied orbitals:                                                224
 Number of molecular orbitals:                                               324

 Number of orbital functions:                                               1456
 Number of independent orbital functions:                                   1456

 Extrapolation method: initial_guess


 SCF WAVEFUNCTION OPTIMIZATION

  Step     Update method      Time    Convergence         Total energy    Change
  ------------------------------------------------------------------------------
     1 NoMix/Diag. 0.10E+00    2.9     0.45351495      -625.7614482045 -6.26E+02
     2 Broy./Diag. 0.10E+00    5.1     0.10207526      -605.8744410931  1.99E+01
     3 Broy./Diag. 0.10E+00    5.2     0.05485724      -612.4702247895 -6.60E+00
     4 Broy./Diag. 0.10E+00    5.2     7.57350354      -624.0487933565 -1.16E+01
     5 Broy./Diag. 0.10E+00    5.3     7.57348741      -604.5851106300  1.95E+01
     6 Broy./Diag. 0.10E+00    5.3     0.11052780      -628.3201141786 -2.37E+01
     7 Broy./Diag. 0.10E+00    5.4     7.55075460      -629.1395037694 -8.19E-01
     8 Broy./Diag. 0.10E+00    5.5     7.55074904      -515.0369894458  1.14E+02
     9 Broy./Diag. 0.10E+00    5.6     6.81685990      -629.1408930068 -1.14E+02
    10 Broy./Diag. 0.10E+00    5.7     6.81686574      -609.0663826428  2.01E+01
    11 Broy./Diag. 0.10E+00    5.7     0.09592809      -629.6232289407 -2.06E+01
    12 Broy./Diag. 0.10E+00    5.7     0.04241225      -629.8294886879 -2.06E-01
    13 Broy./Diag. 0.10E+00    5.7     0.31933859      -629.9926192870 -1.63E-01
    14 Broy./Diag. 0.10E+00    5.6     0.31854722      -629.1771185742  8.16E-01
    15 Broy./Diag. 0.10E+00    5.7     0.13320969      -629.8312677201 -6.54E-01
    16 Broy./Diag. 0.10E+00    5.7     0.02665488      -630.1933241795 -3.62E-01
    17 Broy./Diag. 0.10E+00    5.7     0.02701600      -630.4187447195 -2.25E-01
    18 Broy./Diag. 0.10E+00    5.6     0.00690572      -630.6336742087 -2.15E-01
    19 Broy./Diag. 0.10E+00    5.7     0.01286036      -630.7455677949 -1.12E-01
    20 Broy./Diag. 0.10E+00    5.6     0.00751693      -630.7411894482  4.38E-03
    21 Broy./Diag. 0.10E+00    5.7     0.00659971      -630.6216561012  1.20E-01
    22 Broy./Diag. 0.10E+00    5.6     0.00629548      -630.5879694990  3.37E-02
    23 Broy./Diag. 0.10E+00    5.7     0.00404233      -630.5474402932  4.05E-02
    24 Broy./Diag. 0.10E+00    5.7     0.00417252      -630.5216876634  2.58E-02
    25 Broy./Diag. 0.10E+00    5.7     0.00260275      -630.4964919751  2.52E-02
    26 Broy./Diag. 0.10E+00    5.6     0.00291948      -630.4872941052  9.20E-03
    27 Broy./Diag. 0.10E+00    5.7     0.00497785      -630.4960764337 -8.78E-03
    28 Broy./Diag. 0.10E+00    5.6     0.00562771      -630.5059385806 -9.86E-03
    29 Broy./Diag. 0.10E+00    5.7     0.00772670      -630.5195061158 -1.36E-02
    30 Broy./Diag. 0.10E+00    5.6     0.00493933      -630.5251132902 -5.61E-03
    31 Broy./Diag. 0.10E+00    5.6     0.00993266      -630.5417864785 -1.67E-02
    32 Broy./Diag. 0.10E+00    5.6     0.00174014      -630.5561529828 -1.44E-02
    33 Broy./Diag. 0.10E+00    5.6     0.00570549      -630.5631118857 -6.96E-03
    34 Broy./Diag. 0.10E+00    5.7     0.00380644      -630.5729625108 -9.85E-03
    35 Broy./Diag. 0.10E+00    5.6     0.00515768      -630.5853940100 -1.24E-02
    36 Broy./Diag. 0.10E+00    5.6     0.00298695      -630.5981762137 -1.28E-02
    37 Broy./Diag. 0.10E+00    5.6     0.00319361      -630.5997999375 -1.62E-03
    38 Broy./Diag. 0.10E+00    5.6     0.00184709      -630.6035777241 -3.78E-03
    39 Broy./Diag. 0.10E+00    5.6     0.00189552      -630.6048800503 -1.30E-03
    40 Broy./Diag. 0.10E+00    5.7     0.00214541      -630.6023622727  2.52E-03
    41 Broy./Diag. 0.10E+00    5.6     0.00322284      -630.6023199982  4.23E-05
    42 Broy./Diag. 0.10E+00    5.6     0.00076596      -630.5988994677  3.42E-03
    43 Broy./Diag. 0.10E+00    5.6     0.00078925      -630.5928964351  6.00E-03
    44 Broy./Diag. 0.10E+00    5.6     0.00076173      -630.5821540829  1.07E-02
    45 Broy./Diag. 0.10E+00    5.7     0.00062936      -630.5712114678  1.09E-02
    46 Broy./Diag. 0.10E+00    5.6     0.00053161      -630.5592958889  1.19E-02
    47 Broy./Diag. 0.10E+00    5.6     0.00031424      -630.5504636355  8.83E-03
    48 Broy./Diag. 0.10E+00    5.6     0.00061359      -630.5450814232  5.38E-03
    49 Broy./Diag. 0.10E+00    5.6     0.00018855      -630.5418601603  3.22E-03
    50 Broy./Diag. 0.10E+00    5.6     0.00035606      -630.5403553836  1.50E-03
    51 Broy./Diag. 0.10E+00    5.6     0.00019425      -630.5417585289 -1.40E-03
    52 Broy./Diag. 0.10E+00    5.6     0.00016269      -630.5438121099 -2.05E-03
    53 Broy./Diag. 0.10E+00    5.6     0.00012167      -630.5449657612 -1.15E-03
    54 Broy./Diag. 0.10E+00    5.6     0.00010629      -630.5459552334 -9.89E-04
    55 Broy./Diag. 0.10E+00    5.6     0.00008575      -630.5469541763 -9.99E-04
    56 Broy./Diag. 0.10E+00    5.6     0.00017907      -630.5477409671 -7.87E-04
    57 Broy./Diag. 0.10E+00    5.6     0.00012441      -630.5484217552 -6.81E-04
    58 Broy./Diag. 0.10E+00    5.6     0.00008231      -630.5491468240 -7.25E-04
    59 Broy./Diag. 0.10E+00    5.6     0.00009411      -630.5498578674 -7.11E-04
    60 Broy./Diag. 0.10E+00    5.6     0.00003926      -630.5501891967 -3.31E-04
    61 Broy./Diag. 0.10E+00    5.6     0.00003389      -630.5501775347  1.17E-05
    62 Broy./Diag. 0.10E+00    5.6     0.00005696      -630.5494205997  7.57E-04
    63 Broy./Diag. 0.10E+00    5.6     0.00006867      -630.5490229292  3.98E-04
    64 Broy./Diag. 0.10E+00    5.6     0.00004656      -630.5485707219  4.52E-04
    65 Broy./Diag. 0.10E+00    5.7     0.00003009      -630.5482632066  3.08E-04
    66 Broy./Diag. 0.10E+00    5.7     0.00001543      -630.5481131028  1.50E-04
    67 Broy./Diag. 0.10E+00    5.6     0.00001486      -630.5481403159 -2.72E-05
    68 Broy./Diag. 0.10E+00    5.6     0.00001526      -630.5483150641 -1.75E-04
    69 Broy./Diag. 0.10E+00    5.6     0.00002058      -630.5485460378 -2.31E-04
    70 Broy./Diag. 0.10E+00    5.6     0.00001050      -630.5488383222 -2.92E-04
    71 Broy./Diag. 0.10E+00    5.6     0.00001134      -630.5490601643 -2.22E-04
    72 Broy./Diag. 0.10E+00    5.6     0.00001149      -630.5491805799 -1.20E-04
    73 Broy./Diag. 0.10E+00    5.7     0.00000770      -630.5492257197 -4.51E-05
    74 Broy./Diag. 0.10E+00    5.7     0.00000632      -630.5491925374  3.32E-05
    75 Broy./Diag. 0.10E+00    5.7     0.00000626      -630.5491150951  7.74E-05
    76 Broy./Diag. 0.10E+00    5.7     0.00000657      -630.5489719516  1.43E-04
    77 Broy./Diag. 0.10E+00    5.7     0.00000507      -630.5488143226  1.58E-04
    78 Broy./Diag. 0.10E+00    5.7     0.00000895      -630.5486977883  1.17E-04
    79 Broy./Diag. 0.10E+00    5.7     0.00000391      -630.5486189776  7.88E-05
    80 Broy./Diag. 0.10E+00    5.6     0.00000278      -630.5485788566  4.01E-05
    81 Broy./Diag. 0.10E+00    5.7     0.00000179      -630.5485705132  8.34E-06
    82 Broy./Diag. 0.10E+00    5.7     0.00000205      -630.5485840750 -1.36E-05
    83 Broy./Diag. 0.10E+00    5.7     0.00000231      -630.5486125782 -2.85E-05
    84 Broy./Diag. 0.10E+00    5.7     0.00000367      -630.5486306451 -1.81E-05
    85 Broy./Diag. 0.10E+00    5.7     0.00000266      -630.5486397647 -9.12E-06
    86 Broy./Diag. 0.10E+00    5.7     0.00000399      -630.5486457101 -5.95E-06
    87 Broy./Diag. 0.10E+00    5.7     0.00000186      -630.5486446693  1.04E-06
    88 Broy./Diag. 0.10E+00    5.6     0.00000286      -630.5486400960  4.57E-06
    89 Broy./Diag. 0.10E+00    5.7     0.00000141      -630.5486311751  8.92E-06
    90 Broy./Diag. 0.10E+00    5.7     0.00000180      -630.5486159090  1.53E-05
    91 Broy./Diag. 0.10E+00    5.7     0.00000176      -630.5485988596  1.70E-05
    92 Broy./Diag. 0.10E+00    5.6     0.00000231      -630.5485862557  1.26E-05
    93 Broy./Diag. 0.10E+00    5.7     0.00000154      -630.5485775261  8.73E-06
    94 Broy./Diag. 0.10E+00    5.6     0.00000187      -630.5485706775  6.85E-06
    95 Broy./Diag. 0.10E+00    5.7     0.00000249      -630.5485641710  6.51E-06
    96 Broy./Diag. 0.10E+00    5.7     0.00000173      -630.5485594639  4.71E-06
    97 Broy./Diag. 0.10E+00    5.7     0.00000173      -630.5485576881  1.78E-06
    98 Broy./Diag. 0.10E+00    5.6     0.00000267      -630.5485562583  1.43E-06
    99 Broy./Diag. 0.10E+00    5.7     0.00000406      -630.5485559507  3.08E-07
   100 Broy./Diag. 0.10E+00    5.6     0.00000105      -630.5485570391 -1.09E-06

  Leaving inner SCF loop after reaching   100 steps.


  Electronic density on regular grids:       -447.9999999998        0.0000000002
  Core density on regular grids:              447.9999999996       -0.0000000004
  Total charge density on r-space grids:       -0.0000000002
  Total charge density g-space grids:          -0.0000000002

  Overlap energy of the core charge distribution:               0.00001632004391
  Self energy of the core charge distribution:              -1493.52088779770361
  Core Hamiltonian energy:                                    462.24105033364435
  Hartree energy:                                             589.98557528439369
  Exchange-correlation energy:                               -188.94560453512676
  Dispersion energy:                                           -0.30006071908151
  Electronic entropic energy:                                  -0.00864592439122
  Fermi energy:                                                -0.15232967617480

  Total energy:                                              -630.54855703910084

  outer SCF iter =    1 RMS gradient =   0.10E-05 energy =       -630.5485570391
     1 Broy./Diag. 0.10E+00   10.4     0.00009909      -630.5485635954 -6.56E-06
     2 Broy./Diag. 0.10E+00    5.6     0.00010313      -630.5485674802 -3.88E-06
     3 Broy./Diag. 0.10E+00    5.6     0.00000199      -630.5485600187  7.46E-06
     4 Broy./Diag. 0.10E+00    5.7     0.00000089      -630.5485601928 -1.74E-07
     5 Broy./Diag. 0.10E+00    5.7     0.00000064      -630.5485601435  4.93E-08
     6 Broy./Diag. 0.10E+00    5.6     0.00000136      -630.5485593943  7.49E-07
     7 Broy./Diag. 0.10E+00    5.7     0.00000090      -630.5485592953  9.89E-08
     8 Broy./Diag. 0.10E+00    5.6     0.00000087      -630.5485582432  1.05E-06
     9 Broy./Diag. 0.10E+00    5.7     0.00000222      -630.5485564686  1.77E-06
    10 Broy./Diag. 0.10E+00    5.6     0.00000068      -630.5485555406  9.28E-07
    11 Broy./Diag. 0.10E+00    5.7     0.00000448      -630.5485528542  2.69E-06
    12 Broy./Diag. 0.10E+00    5.6     0.00000117      -630.5485527420  1.12E-07
    13 Broy./Diag. 0.10E+00    5.7     0.00000180      -630.5485534310 -6.89E-07
    14 Broy./Diag. 0.10E+00    5.6     0.00000153      -630.5485537110 -2.80E-07
    15 Broy./Diag. 0.10E+00    5.7     0.00000146      -630.5485546831 -9.72E-07
    16 Broy./Diag. 0.10E+00    5.7     0.00000082      -630.5485555905 -9.07E-07
    17 Broy./Diag. 0.10E+00    5.7     0.00000150      -630.5485569673 -1.38E-06
    18 Broy./Diag. 0.10E+00    5.7     0.00000224      -630.5485581609 -1.19E-06
    19 Broy./Diag. 0.10E+00    5.7     0.00000191      -630.5485595599 -1.40E-06
    20 Broy./Diag. 0.10E+00    5.6     0.00000107      -630.5485600691 -5.09E-07
    21 Broy./Diag. 0.10E+00    5.7     0.00000072      -630.5485607826 -7.14E-07
    22 Broy./Diag. 0.10E+00    5.6     0.00000092      -630.5485612748 -4.92E-07
    23 Broy./Diag. 0.10E+00    5.7     0.00000097      -630.5485620174 -7.43E-07
    24 Broy./Diag. 0.10E+00    5.6     0.00000034      -630.5485623529 -3.35E-07
    25 Broy./Diag. 0.10E+00    5.7     0.00000056      -630.5485624587 -1.06E-07
    26 Broy./Diag. 0.10E+00    5.6     0.00000071      -630.5485621124  3.46E-07
    27 Broy./Diag. 0.10E+00    5.7     0.00000094      -630.5485620595  5.30E-08
    28 Broy./Diag. 0.10E+00    5.6     0.00000061      -630.5485621343 -7.48E-08
    29 Broy./Diag. 0.10E+00    5.7     0.00000049      -630.5485617639  3.70E-07
    30 Broy./Diag. 0.10E+00    5.6     0.00000036      -630.5485621529 -3.89E-07
    31 Broy./Diag. 0.10E+00    5.7     0.00000038      -630.5485620469  1.06E-07
    32 Broy./Diag. 0.10E+00    5.7     0.00000035      -630.5485620206  2.63E-08
    33 Broy./Diag. 0.10E+00    5.7     0.00000075      -630.5485619060  1.15E-07
    34 Broy./Diag. 0.10E+00    5.7     0.00000053      -630.5485620186 -1.13E-07
    35 Broy./Diag. 0.10E+00    5.7     0.00000024      -630.5485621393 -1.21E-07

  *** SCF run converged in    35 steps ***


  Electronic density on regular grids:       -447.9999999998        0.0000000002
  Core density on regular grids:              447.9999999996       -0.0000000004
  Total charge density on r-space grids:       -0.0000000002
  Total charge density g-space grids:          -0.0000000002

  Overlap energy of the core charge distribution:               0.00001632004391
  Self energy of the core charge distribution:              -1493.52088779770361
  Core Hamiltonian energy:                                    462.24104953344954
  Hartree energy:                                             589.98557089384144
  Exchange-correlation energy:                               -188.94560444484023
  Dispersion energy:                                           -0.30006071908151
  Electronic entropic energy:                                  -0.00864592504843
  Fermi energy:                                                -0.15232968261506

  Total energy:                                              -630.54856213925450

  outer SCF iter =    2 RMS gradient =   0.24E-06 energy =       -630.5485621393
  outer SCF loop converged in   2 iterations or  135 steps


  Integrated absolute spin density  :                               0.0000737802
  WARNING: S**2 computation does not yet treat fractional occupied orbitals

 *** WARNING in qs_loc_utils.F:1387 :: User requested the calculation of ***
 *** the localized wavefunction but the section LOCALIZE was not         ***
 *** specified. Localization will not be performed!                      ***


 -------------------------------------------------------------------------------
 -                                                                             -
 -  BSSE CALCULATION         FRAGMENT CONF: 01        FRAGMENT SUBCONF: 01     -
 -                           CHARGE =     0           MULTIPLICITY =     0     -
 -                                                                             -
 -                 ATOM INDEX                              ATOM NAME           -
 -                 ----------                              ---------           -
 -                    113                                   C                  -
 -------------------------------------------------------------------------------

 *******************************************************************************
 *******************************************************************************
 **                                                                           **
 **     #####                         ##              ##                      **
 **    ##   ##            ##          ##              ##                      **
 **   ##     ##                       ##            ######                    **
 **   ##     ##  ##   ##  ##   #####  ##  ##   ####   ##    #####    #####    **
 **   ##     ##  ##   ##  ##  ##      ## ##   ##      ##   ##   ##  ##   ##   **
 **   ##  ## ##  ##   ##  ##  ##      ####     ###    ##   ######   ######    **
 **    ##  ###   ##   ##  ##  ##      ## ##      ##   ##   ##       ##        **
 **     #######   #####   ##   #####  ##  ##  ####    ##    #####   ##        **
 **           ##                                                    ##        **
 **                                                                           **
 **                                                ... make the atoms dance   **
 **                                                                           **
 **            Copyright (C) by CP2K developers group (2000 - 2018)           **
 **                                                                           **
 *******************************************************************************

 *** WARNING in qs_environment.F:1128 :: More added MOs requested for beta ***
 *** spin than available.                                                  ***


 *** WARNING in qs_environment.F:1142 :: More added MOs requested than ***
 *** available. The full set of unoccupied MOs will be used.           ***



 TOTAL NUMBERS AND MAXIMUM NUMBERS

  Total number of            - Atomic kinds:                                   1
                             - Atoms:                                          1
                             - Shell sets:                                     1
                             - Shells:                                         5
                             - Primitive Cartesian functions:                  5
                             - Cartesian basis functions:                     14
                             - Spherical basis functions:                     13

  Maximum angular momentum of- Orbital basis functions:                        2
                             - Local part of the GTH pseudopotential:          2
                             - Non-local part of the GTH pseudopotential:      0


 SCF PARAMETERS         Density guess:                                    ATOMIC
                        --------------------------------------------------------
                        max_scf:                                             100
                        max_scf_history:                                       0
                        max_diis:                                              4
                        --------------------------------------------------------
                        eps_scf:                                        3.00E-07
                        eps_scf_history:                                0.00E+00
                        eps_diis:                                       1.00E-01
                        eps_eigval:                                     1.00E-05
                        --------------------------------------------------------
                        level_shift [a.u.]:                                 0.00
                        added MOs                                        11   11
                        --------------------------------------------------------
                        Mixing method:                            BROYDEN_MIXING
                                                charge density mixing in g-space
                        --------------------------------------------------------
                        Smear method:                                FERMI_DIRAC
                        Electronic temperature [K]:                        300.0
                        Electronic temperature [a.u.]:                  9.50E-04
                        Accuracy threshold:                             1.00E-10
                        --------------------------------------------------------
                        Outer loop SCF in use 
                        No variables optimised in outer loop
                        eps_scf                                         1.00E-06
                        max_scf                                               30
                        DIIS optimization
                        DIIS buffer length                                     3
                        step_size                                       5.00E-01

 Spin 1

 Number of electrons:                                                          2
 Number of occupied orbitals:                                                  2
 Number of molecular orbitals:                                                13

 Spin 2

 Number of electrons:                                                          2
 Number of occupied orbitals:                                                  2
 Number of molecular orbitals:                                                13

 Number of orbital functions:                                                 13
 Number of independent orbital functions:                                     13

 Extrapolation method: initial_guess


 SCF WAVEFUNCTION OPTIMIZATION

  Step     Update method      Time    Convergence         Total energy    Change
  ------------------------------------------------------------------------------
     1 NoMix/Diag. 0.10E+00    1.2     0.04944665        -5.3096550360 -5.31E+00
     2 Broy./Diag. 0.10E+00    2.5     0.00219537        -5.3118409023 -2.19E-03

 *******************************************************************************
 *   ___                                                                       *
 *  /   \                                                                      *
 * [ABORT]                                                                     *
 *  \___/                  The LU factorization in dgetrf failed               *
 *    |                                                                        *
 *  O/|                                                                        *
 * /| |                                                                        *
 * / \                                                    common/mathlib.F:687 *
 *******************************************************************************


 ===== Routine Calling Stack ===== 

            6 broyden_mixing
            5 gspace_mixing
            4 scf_env_do_scf_inner_loop
            3 scf_env_do_scf
            2 qs_energies
            1 CP2K
