 DBCSR| CPU Multiplication driver                                           BLAS (U)
 DBCSR| Multrec recursion limit                                              512 (U)
 DBCSR| Multiplication stack size                                           1000 (D)
 DBCSR| Maximum elements for images                                    UNLIMITED (U)
 DBCSR| Multiplicative factor virtual images                                   1 (U)
 DBCSR| Use multiplication densification                                       T (D)
 DBCSR| Multiplication size stacks                                             3 (U)
 DBCSR| Use memory pool for CPU allocation                                     F (U)
 DBCSR| Number of 3D layers                                               SINGLE (U)
 DBCSR| Use MPI memory allocation                                              F (U)
 DBCSR| Use RMA algorithm                                                      F (U)
 DBCSR| Use Communication thread                                               T (U)
 DBCSR| Communication thread load                                             87 (D)
 DBCSR| MPI: My process id                                                     0
 DBCSR| MPI: Number of processes                                              16
 DBCSR| OMP: Current number of threads                                         1
 DBCSR| OMP: Max number of threads                                             1
 DBCSR| Split modifier for TAS multiplication algorithm                  1.0E+00 (U)


  **** **** ******  **  PROGRAM STARTED AT               2025-10-22 12:49:28.353
 ***** ** ***  *** **   PROGRAM STARTED ON                            sebnode123
 **    ****   ******    PROGRAM STARTED BY                                luehrs
 ***** **    ** ** **   PROGRAM PROCESS ID                                982508
  **** **  *******  **  PROGRAM STARTED IN /home/luehrs/PhD/Sodium_batteries/Sod
                                           ium-graphene-edge/Zig_zag_3/No_hydrog
                                           en

 CP2K| version string:                                       CP2K version 2023.1
 CP2K| source code revision number:                                  git:b888bd8
 CP2K| cp2kflags: omp libint fftw3 libxc elpa parallel scalapack spglib         
 CP2K| is freely available from                            https://www.cp2k.org/
 CP2K| Program compiled at                          Tue Jan 10 19:52:03 UTC 2023
 CP2K| Program compiled on                                            x86-ubc-01
 CP2K| Program compiled for                                Linux-x86_64-gfortran
 CP2K| Data directory path                                       /usr/share/cp2k
 CP2K| Input file name                                         input.zig-zag.inp

 GLOBAL| Force Environment number                                              1
 GLOBAL| Basis set file name                                      ./BASIS_MOLOPT
 GLOBAL| Potential file name                                    ./GTH_POTENTIALS
 GLOBAL| MM Potential file name                                     MM_POTENTIAL
 GLOBAL| Coordinate file name           graphene_no_hydrogen_zig-zag_PBE_relaxed
 GLOBAL| Method name                                                        CP2K
 GLOBAL| Project name                                  graphene_zig_zag_BSSE_PBE
 GLOBAL| Run type                                                           BSSE
 GLOBAL| FFT library                                                       FFTW3
 GLOBAL| Diagonalization library                                            ELPA
 GLOBAL| DGEMM library                                                      BLAS
 GLOBAL| Minimum number of eigenvectors for ELPA usage                        16
 GLOBAL| Orthonormality check for eigenvectors                          DISABLED
 GLOBAL| Matrix multiplication library                                 ScaLAPACK
 GLOBAL| All-to-all communication in single precision                          F
 GLOBAL| FFTs using library dependent lengths                                  F
 GLOBAL| Grid backend                                                       AUTO
 GLOBAL| Global print level                                                  LOW
 GLOBAL| MPI I/O enabled                                                       T
 GLOBAL| Total number of message passing processes                            16
 GLOBAL| Number of threads for this process                                    1
 GLOBAL| This output is from process                                           0
 GLOBAL| Stack size for threads created by OpenMP (OMP_STACKSIZE)        default
 GLOBAL| CPU model name                 Intel(R) Xeon(R) Gold 6144 CPU @ 3.50GHz

 MEMORY| system memory details [Kb]
 MEMORY|                        rank 0           min           max       average
 MEMORY| MemTotal             65579904      65579904      65579904      65579904
 MEMORY| MemFree              61924880      61924880      61924880      61924880
 MEMORY| Buffers                358344        358344        358344        358344
 MEMORY| Cached                1171752       1171752       1171752       1171752
 MEMORY| Slab                   336748        336748        336748        336748
 MEMORY| SReclaimable           127360        127360        127360        127360
 MEMORY| MemLikelyFree        63582336      63582336      63582336      63582336


 GENERATE|  Preliminary Number of Bonds generated:                             0
 GENERATE|  Achieved consistency in connectivity generation.

 *******************************************************************************
 *******************************************************************************
 **                                                                           **
 **     #####                         ##              ##                      **
 **    ##   ##            ##          ##              ##                      **
 **   ##     ##                       ##            ######                    **
 **   ##     ##  ##   ##  ##   #####  ##  ##   ####   ##    #####    #####    **
 **   ##     ##  ##   ##  ##  ##      ## ##   ##      ##   ##   ##  ##   ##   **
 **   ##  ## ##  ##   ##  ##  ##      ####     ###    ##   ######   ######    **
 **    ##  ###   ##   ##  ##  ##      ## ##      ##   ##   ##       ##        **
 **     #######   #####   ##   #####  ##  ##  ####    ##    #####   ##        **
 **           ##                                                    ##        **
 **                                                                           **
 **                                                ... make the atoms dance   **
 **                                                                           **
 **            Copyright (C) by CP2K developers group (2000-2022)             **
 **                      J. Chem. Phys. 152, 194103 (2020)                    **
 **                                                                           **
 *******************************************************************************


 TOTAL NUMBERS AND MAXIMUM NUMBERS

  Total number of            - Atomic kinds:                                   2
                             - Atoms:                                        113
                             - Shell sets:                                   113
                             - Shells:                                       565
                             - Primitive Cartesian functions:                567
                             - Cartesian basis functions:                   1577
                             - Spherical basis functions:                   1465

  Maximum angular momentum of- Orbital basis functions:                        2
                             - Local part of the GTH pseudopotential:          2
                             - Non-local part of the GTH pseudopotential:      1


 SCF PARAMETERS         Density guess:                                    ATOMIC
                        --------------------------------------------------------
                        max_scf:                                             400
                        max_scf_history:                                       0
                        max_diis:                                              4
                        --------------------------------------------------------
                        eps_scf:                                        3.00E-07
                        eps_scf_history:                                0.00E+00
                        eps_diis:                                       1.00E-01
                        eps_eigval:                                     1.00E-05
                        --------------------------------------------------------
                        level_shift [a.u.]:                             0.000000
                        added MOs                                       100    0
                        --------------------------------------------------------
                        Mixing method:                            BROYDEN_MIXING
                                                charge density mixing in g-space
                        --------------------------------------------------------
                        Smear method:                                FERMI_DIRAC
                        Electronic temperature [K]:                        300.0
                        Electronic temperature [a.u.]:                  9.50E-04
                        Accuracy threshold:                             1.00E-10
                        --------------------------------------------------------
                        Outer loop SCF in use 
                        No variables optimised in outer loop
                        eps_scf                                         1.00E-06
                        max_scf                                              100
                        DIIS optimization
                        DIIS buffer length                                     3
                        step_size                                       5.00E-01

 -------------------------------------------------------------------------------
 -                                                                             -
 -  BSSE CALCULATION         FRAGMENT CONF: 10        FRAGMENT SUBCONF: 10     -
 -                           CHARGE =     0           MULTIPLICITY =     0     -
 -                                                                             -
 -                 ATOM INDEX                              ATOM NAME           -
 -                 ----------                              ---------           -
 -                      1                                   C                  -
 -                      2                                   C                  -
 -                      3                                   C                  -
 -                      4                                   C                  -
 -                      5                                   C                  -
 -                      6                                   C                  -
 -                      7                                   C                  -
 -                      8                                   C                  -
 -                      9                                   C                  -
 -                     10                                   C                  -
 -                     11                                   C                  -
 -                     12                                   C                  -
 -                     13                                   C                  -
 -                     14                                   C                  -
 -                     15                                   C                  -
 -                     16                                   C                  -
 -                     17                                   C                  -
 -                     18                                   C                  -
 -                     19                                   C                  -
 -                     20                                   C                  -
 -                     21                                   C                  -
 -                     22                                   C                  -
 -                     23                                   C                  -
 -                     24                                   C                  -
 -                     25                                   C                  -
 -                     26                                   C                  -
 -                     27                                   C                  -
 -                     28                                   C                  -
 -                     29                                   C                  -
 -                     30                                   C                  -
 -                     31                                   C                  -
 -                     32                                   C                  -
 -                     33                                   C                  -
 -                     34                                   C                  -
 -                     35                                   C                  -
 -                     36                                   C                  -
 -                     37                                   C                  -
 -                     38                                   C                  -
 -                     39                                   C                  -
 -                     40                                   C                  -
 -                     41                                   C                  -
 -                     42                                   C                  -
 -                     43                                   C                  -
 -                     44                                   C                  -
 -                     45                                   C                  -
 -                     46                                   C                  -
 -                     47                                   C                  -
 -                     48                                   C                  -
 -                     49                                   C                  -
 -                     50                                   C                  -
 -                     51                                   C                  -
 -                     52                                   C                  -
 -                     53                                   C                  -
 -                     54                                   C                  -
 -                     55                                   C                  -
 -                     56                                   C                  -
 -                     57                                   C                  -
 -                     58                                   C                  -
 -                     59                                   C                  -
 -                     60                                   C                  -
 -                     61                                   C                  -
 -                     62                                   C                  -
 -                     63                                   C                  -
 -                     64                                   C                  -
 -                     65                                   C                  -
 -                     66                                   C                  -
 -                     67                                   C                  -
 -                     68                                   C                  -
 -                     69                                   C                  -
 -                     70                                   C                  -
 -                     71                                   C                  -
 -                     72                                   C                  -
 -                     73                                   C                  -
 -                     74                                   C                  -
 -                     75                                   C                  -
 -                     76                                   C                  -
 -                     77                                   C                  -
 -                     78                                   C                  -
 -                     79                                   C                  -
 -                     80                                   C                  -
 -                     81                                   C                  -
 -                     82                                   C                  -
 -                     83                                   C                  -
 -                     84                                   C                  -
 -                     85                                   C                  -
 -                     86                                   C                  -
 -                     87                                   C                  -
 -                     88                                   C                  -
 -                     89                                   C                  -
 -                     90                                   C                  -
 -                     91                                   C                  -
 -                     92                                   C                  -
 -                     93                                   C                  -
 -                     94                                   C                  -
 -                     95                                   C                  -
 -                     96                                   C                  -
 -                     97                                   C                  -
 -                     98                                   C                  -
 -                     99                                   C                  -
 -                    100                                   C                  -
 -                    101                                   C                  -
 -                    102                                   C                  -
 -                    103                                   C                  -
 -                    104                                   C                  -
 -                    105                                   C                  -
 -                    106                                   C                  -
 -                    107                                   C                  -
 -                    108                                   C                  -
 -                    109                                   C                  -
 -                    110                                   C                  -
 -                    111                                   C                  -
 -                    112                                   C                  -
 -------------------------------------------------------------------------------

 *******************************************************************************
 *******************************************************************************
 **                                                                           **
 **     #####                         ##              ##                      **
 **    ##   ##            ##          ##              ##                      **
 **   ##     ##                       ##            ######                    **
 **   ##     ##  ##   ##  ##   #####  ##  ##   ####   ##    #####    #####    **
 **   ##     ##  ##   ##  ##  ##      ## ##   ##      ##   ##   ##  ##   ##   **
 **   ##  ## ##  ##   ##  ##  ##      ####     ###    ##   ######   ######    **
 **    ##  ###   ##   ##  ##  ##      ## ##      ##   ##   ##       ##        **
 **     #######   #####   ##   #####  ##  ##  ####    ##    #####   ##        **
 **           ##                                                    ##        **
 **                                                                           **
 **                                                ... make the atoms dance   **
 **                                                                           **
 **            Copyright (C) by CP2K developers group (2000-2022)             **
 **                      J. Chem. Phys. 152, 194103 (2020)                    **
 **                                                                           **
 *******************************************************************************


 TOTAL NUMBERS AND MAXIMUM NUMBERS

  Total number of            - Atomic kinds:                                   1
                             - Atoms:                                        112
                             - Shell sets:                                   112
                             - Shells:                                       560
                             - Primitive Cartesian functions:                560
                             - Cartesian basis functions:                   1568
                             - Spherical basis functions:                   1456

  Maximum angular momentum of- Orbital basis functions:                        2
                             - Local part of the GTH pseudopotential:          2
                             - Non-local part of the GTH pseudopotential:      0


 SCF PARAMETERS         Density guess:                                    ATOMIC
                        --------------------------------------------------------
                        max_scf:                                             400
                        max_scf_history:                                       0
                        max_diis:                                              4
                        --------------------------------------------------------
                        eps_scf:                                        3.00E-07
                        eps_scf_history:                                0.00E+00
                        eps_diis:                                       1.00E-01
                        eps_eigval:                                     1.00E-05
                        --------------------------------------------------------
                        level_shift [a.u.]:                             0.000000
                        added MOs                                       100    0
                        --------------------------------------------------------
                        Mixing method:                            BROYDEN_MIXING
                                                charge density mixing in g-space
                        --------------------------------------------------------
                        Smear method:                                FERMI_DIRAC
                        Electronic temperature [K]:                        300.0
                        Electronic temperature [a.u.]:                  9.50E-04
                        Accuracy threshold:                             1.00E-10
                        --------------------------------------------------------
                        Outer loop SCF in use 
                        No variables optimised in outer loop
                        eps_scf                                         1.00E-06
                        max_scf                                              100
                        DIIS optimization
                        DIIS buffer length                                     3
                        step_size                                       5.00E-01

 Number of electrons:                                                        448
 Number of occupied orbitals:                                                224
 Number of molecular orbitals:                                               324

 Number of orbital functions:                                               1456
 Number of independent orbital functions:                                   1456

 Extrapolation method: initial_guess


 SCF WAVEFUNCTION OPTIMIZATION

  Step     Update method      Time    Convergence         Total energy    Change
  ------------------------------------------------------------------------------
     1 NoMix/Diag. 0.10E+00    2.0     0.92619947      -631.5188450465 -6.32E+02
     2 Broy./Diag. 0.10E+00    3.3     0.17581782      -610.2244821769  2.13E+01
     3 Broy./Diag. 0.10E+00    3.4     0.27969051      -617.2788477746 -7.05E+00
     4 Broy./Diag. 0.10E+00    3.4     0.69312650      -629.5798831400 -1.23E+01
     5 Broy./Diag. 0.10E+00    3.4     0.06082625      -633.7427035665 -4.16E+00
     6 Broy./Diag. 0.10E+00    3.5     0.93067294      -634.2233204943 -4.81E-01
     7 Broy./Diag. 0.10E+00    3.6     0.11603596      -634.7201040425 -4.97E-01
     8 Broy./Diag. 0.10E+00    3.6     0.10976987      -634.8028829974 -8.28E-02
     9 Broy./Diag. 0.10E+00    3.7     0.29661137      -634.9886412167 -1.86E-01
    10 Broy./Diag. 0.10E+00    3.8     0.34778487      -635.2229841857 -2.34E-01
    11 Broy./Diag. 0.10E+00    3.8     0.13376370      -635.3470064693 -1.24E-01
    12 Broy./Diag. 0.10E+00    3.8     0.02405069      -635.3594735514 -1.25E-02
    13 Broy./Diag. 0.10E+00    3.8     0.01749921      -635.4211539294 -6.17E-02
    14 Broy./Diag. 0.10E+00    3.8     0.01725258      -635.5198616835 -9.87E-02
    15 Broy./Diag. 0.10E+00    3.8     0.07715898      -635.6357012158 -1.16E-01
    16 Broy./Diag. 0.10E+00    3.8     0.04053834      -635.7563763036 -1.21E-01
    17 Broy./Diag. 0.10E+00    3.8     0.03431471      -635.8784212785 -1.22E-01
    18 Broy./Diag. 0.10E+00    3.8     0.01496008      -635.9114971120 -3.31E-02
    19 Broy./Diag. 0.10E+00    3.8     0.00613622      -635.9177821392 -6.29E-03
    20 Broy./Diag. 0.10E+00    3.8     0.01344656      -635.9108091822  6.97E-03
    21 Broy./Diag. 0.10E+00    3.8     0.00612231      -635.9031827415  7.63E-03
    22 Broy./Diag. 0.10E+00    3.8     0.00649278      -635.8730510193  3.01E-02
    23 Broy./Diag. 0.10E+00    3.8     0.00316262      -635.8575333789  1.55E-02
    24 Broy./Diag. 0.10E+00    3.8     0.00160421      -635.8670219730 -9.49E-03
    25 Broy./Diag. 0.10E+00    3.8     0.00191758      -635.8890048672 -2.20E-02
    26 Broy./Diag. 0.10E+00    3.8     0.00056871      -635.9132173915 -2.42E-02
    27 Broy./Diag. 0.10E+00    3.8     0.00016671      -635.9152312634 -2.01E-03
    28 Broy./Diag. 0.10E+00    3.8     0.00021252      -635.9071265247  8.10E-03
    29 Broy./Diag. 0.10E+00    3.8     0.00044955      -635.9083890712 -1.26E-03
    30 Broy./Diag. 0.10E+00    3.8     0.00054447      -635.9191895988 -1.08E-02
    31 Broy./Diag. 0.10E+00    3.8     0.00038301      -635.9266622687 -7.47E-03
    32 Broy./Diag. 0.10E+00    3.8     0.00015598      -635.9258724041  7.90E-04
    33 Broy./Diag. 0.10E+00    3.8     0.00018477      -635.9241975983  1.67E-03
    34 Broy./Diag. 0.10E+00    3.8     0.00015536      -635.9261263866 -1.93E-03
    35 Broy./Diag. 0.10E+00    3.8     0.00011087      -635.9290357002 -2.91E-03
    36 Broy./Diag. 0.10E+00    3.8     0.00008140      -635.9315260387 -2.49E-03
    37 Broy./Diag. 0.10E+00    3.8     0.00012867      -635.9317363577 -2.10E-04
    38 Broy./Diag. 0.10E+00    3.8     0.00006165      -635.9313131492  4.23E-04
    39 Broy./Diag. 0.10E+00    3.8     0.00004128      -635.9316801122 -3.67E-04
    40 Broy./Diag. 0.10E+00    3.8     0.00007519      -635.9332418104 -1.56E-03
    41 Broy./Diag. 0.10E+00    3.8     0.00006357      -635.9343962539 -1.15E-03
    42 Broy./Diag. 0.10E+00    3.8     0.00004904      -635.9341214401  2.75E-04
    43 Broy./Diag. 0.10E+00    3.8     0.00004222      -635.9334563048  6.65E-04
    44 Broy./Diag. 0.10E+00    3.8     0.00002086      -635.9335579780 -1.02E-04
    45 Broy./Diag. 0.10E+00    3.8     0.00003040      -635.9339995741 -4.42E-04
    46 Broy./Diag. 0.10E+00    3.8     0.00001681      -635.9344304253 -4.31E-04
    47 Broy./Diag. 0.10E+00    3.8     0.00002385      -635.9344363474 -5.92E-06
    48 Broy./Diag. 0.10E+00    3.8     0.00002498      -635.9342001589  2.36E-04
    49 Broy./Diag. 0.10E+00    3.8     0.00001096      -635.9341611752  3.90E-05
    50 Broy./Diag. 0.10E+00    3.8     0.00001365      -635.9343749788 -2.14E-04
    51 Broy./Diag. 0.10E+00    3.8     0.00001449      -635.9346116931 -2.37E-04
    52 Broy./Diag. 0.10E+00    3.8     0.00001287      -635.9346061946  5.50E-06
    53 Broy./Diag. 0.10E+00    3.8     0.00001105      -635.9344470085  1.59E-04
    54 Broy./Diag. 0.10E+00    3.8     0.00000516      -635.9343822308  6.48E-05
    55 Broy./Diag. 0.10E+00    3.8     0.00000696      -635.9345114903 -1.29E-04
    56 Broy./Diag. 0.10E+00    3.8     0.00000518      -635.9346424535 -1.31E-04
    57 Broy./Diag. 0.10E+00    3.8     0.00000738      -635.9346216123  2.08E-05
    58 Broy./Diag. 0.10E+00    3.8     0.00000937      -635.9344977661  1.24E-04
    59 Broy./Diag. 0.10E+00    3.8     0.00000278      -635.9344166524  8.11E-05
    60 Broy./Diag. 0.10E+00    3.8     0.00000589      -635.9344397288 -2.31E-05
    61 Broy./Diag. 0.10E+00    3.8     0.00000530      -635.9344807024 -4.10E-05
    62 Broy./Diag. 0.10E+00    3.8     0.00000320      -635.9344671033  1.36E-05
    63 Broy./Diag. 0.10E+00    3.8     0.00000177      -635.9344275723  3.95E-05
    64 Broy./Diag. 0.10E+00    3.8     0.00000206      -635.9343876815  3.99E-05
    65 Broy./Diag. 0.10E+00    3.8     0.00000291      -635.9343920500 -4.37E-06
    66 Broy./Diag. 0.10E+00    3.8     0.00000217      -635.9344235879 -3.15E-05
    67 Broy./Diag. 0.10E+00    3.8     0.00000263      -635.9344246594 -1.07E-06
    68 Broy./Diag. 0.10E+00    3.8     0.00000424      -635.9343772544  4.74E-05
    69 Broy./Diag. 0.10E+00    3.8     0.00000283      -635.9342996686  7.76E-05
    70 Broy./Diag. 0.10E+00    3.8     0.00000264      -635.9342572381  4.24E-05
    71 Broy./Diag. 0.10E+00    3.8     0.00000352      -635.9342821910 -2.50E-05
    72 Broy./Diag. 0.10E+00    3.8     0.00000091      -635.9342877189 -5.53E-06
    73 Broy./Diag. 0.10E+00    3.8     0.00000130      -635.9342661813  2.15E-05
    74 Broy./Diag. 0.10E+00    3.8     0.00000089      -635.9342374541  2.87E-05
    75 Broy./Diag. 0.10E+00    3.8     0.00000146      -635.9342371838  2.70E-07
    76 Broy./Diag. 0.10E+00    3.8     0.00000109      -635.9342497224 -1.25E-05
    77 Broy./Diag. 0.10E+00    3.8     0.00000065      -635.9342534685 -3.75E-06
    78 Broy./Diag. 0.10E+00    3.8     0.00000137      -635.9342404811  1.30E-05
    79 Broy./Diag. 0.10E+00    3.8     0.00000101      -635.9342264761  1.40E-05
    80 Broy./Diag. 0.10E+00    3.8     0.00000117      -635.9342194663  7.01E-06
    81 Broy./Diag. 0.10E+00    3.8     0.00000123      -635.9342166877  2.78E-06
    82 Broy./Diag. 0.10E+00    3.8     0.00000032      -635.9342149541  1.73E-06
    83 Broy./Diag. 0.10E+00    3.8     0.00000059      -635.9342132150  1.74E-06
    84 Broy./Diag. 0.10E+00    3.8     0.00000043      -635.9342088699  4.35E-06
    85 Broy./Diag. 0.10E+00    3.8     0.00000040      -635.9342036471  5.22E-06
    86 Broy./Diag. 0.10E+00    3.8     0.00000032      -635.9342016106  2.04E-06
    87 Broy./Diag. 0.10E+00    3.8     0.00000051      -635.9342018948 -2.84E-07
    88 Broy./Diag. 0.10E+00    3.8     0.00000051      -635.9342026314 -7.37E-07
    89 Broy./Diag. 0.10E+00    3.8     0.00000049      -635.9342042907 -1.66E-06
    90 Broy./Diag. 0.10E+00    3.8     0.00000038      -635.9342051154 -8.25E-07
    91 Broy./Diag. 0.10E+00    3.8     0.00000040      -635.9342068084 -1.69E-06
    92 Broy./Diag. 0.10E+00    3.8     0.00000010      -635.9342082815 -1.47E-06

  *** SCF run converged in    92 steps ***


  Electronic density on regular grids:       -447.9999999998        0.0000000002
  Core density on regular grids:              447.9999999996       -0.0000000004
  Total charge density on r-space grids:       -0.0000000002
  Total charge density g-space grids:          -0.0000000002

  Overlap energy of the core charge distribution:               0.00001865557362
  Self energy of the core charge distribution:              -1493.52088779770361
  Core Hamiltonian energy:                                    464.66111973900598
  Hartree energy:                                             587.11712616285581
  Exchange-correlation energy:                               -194.06716048713994
  Dispersion energy:                                           -0.11774154511310
  Electronic entropic energy:                                  -0.00668300906245
  Fermi energy:                                                -0.15834053782115

  Total energy:                                              -635.93420828153967

  outer SCF iter =    1 RMS gradient =   0.99E-07 energy =       -635.9342082815
  outer SCF loop converged in   1 iterations or   92 steps


 *** WARNING in qs_loc_utils.F:1500 :: User requested the calculation of ***
 *** the localized wavefunction but the section LOCALIZE was not         ***
 *** specified. Localization will not be performed!                      ***


 -------------------------------------------------------------------------------
 -                                                                             -
 -  BSSE CALCULATION         FRAGMENT CONF: 01        FRAGMENT SUBCONF: 01     -
 -                           CHARGE =     0           MULTIPLICITY =     0     -
 -                                                                             -
 -                 ATOM INDEX                              ATOM NAME           -
 -                 ----------                              ---------           -
 -                    113                                   Na                 -
 -------------------------------------------------------------------------------

 *******************************************************************************
 *******************************************************************************
 **                                                                           **
 **     #####                         ##              ##                      **
 **    ##   ##            ##          ##              ##                      **
 **   ##     ##                       ##            ######                    **
 **   ##     ##  ##   ##  ##   #####  ##  ##   ####   ##    #####    #####    **
 **   ##     ##  ##   ##  ##  ##      ## ##   ##      ##   ##   ##  ##   ##   **
 **   ##  ## ##  ##   ##  ##  ##      ####     ###    ##   ######   ######    **
 **    ##  ###   ##   ##  ##  ##      ## ##      ##   ##   ##       ##        **
 **     #######   #####   ##   #####  ##  ##  ####    ##    #####   ##        **
 **           ##                                                    ##        **
 **                                                                           **
 **                                                ... make the atoms dance   **
 **                                                                           **
 **            Copyright (C) by CP2K developers group (2000-2022)             **
 **                      J. Chem. Phys. 152, 194103 (2020)                    **
 **                                                                           **
 *******************************************************************************

 *** WARNING in qs_environment.F:1486 :: More added MOs requested than     ***
 *** available. The full set of unoccupied MOs will be used. Use           ***
 *** 'ADDED_MOS -1' to always use all available MOs and to get rid of this ***
 *** warning.                                                              ***



 TOTAL NUMBERS AND MAXIMUM NUMBERS

  Total number of            - Atomic kinds:                                   1
                             - Atoms:                                          1
                             - Shell sets:                                     1
                             - Shells:                                         5
                             - Primitive Cartesian functions:                  7
                             - Cartesian basis functions:                      9
                             - Spherical basis functions:                      9

  Maximum angular momentum of- Orbital basis functions:                        1
                             - Local part of the GTH pseudopotential:          2
                             - Non-local part of the GTH pseudopotential:      1


 SCF PARAMETERS         Density guess:                                    ATOMIC
                        --------------------------------------------------------
                        max_scf:                                             400
                        max_scf_history:                                       0
                        max_diis:                                              4
                        --------------------------------------------------------
                        eps_scf:                                        3.00E-07
                        eps_scf_history:                                0.00E+00
                        eps_diis:                                       1.00E-01
                        eps_eigval:                                     1.00E-05
                        --------------------------------------------------------
                        level_shift [a.u.]:                             0.000000
                        added MOs                                         4    0
                        --------------------------------------------------------
                        Mixing method:                            BROYDEN_MIXING
                                                charge density mixing in g-space
                        --------------------------------------------------------
                        Smear method:                                FERMI_DIRAC
                        Electronic temperature [K]:                        300.0
                        Electronic temperature [a.u.]:                  9.50E-04
                        Accuracy threshold:                             1.00E-10
                        --------------------------------------------------------
                        Outer loop SCF in use 
                        No variables optimised in outer loop
                        eps_scf                                         1.00E-06
                        max_scf                                              100
                        DIIS optimization
                        DIIS buffer length                                     3
                        step_size                                       5.00E-01

 Number of electrons:                                                          9
 Number of occupied orbitals:                                                  5
 Number of molecular orbitals:                                                 9

 Number of orbital functions:                                                  9
 Number of independent orbital functions:                                      9

 Extrapolation method: initial_guess


 SCF WAVEFUNCTION OPTIMIZATION

  Step     Update method      Time    Convergence         Total energy    Change
  ------------------------------------------------------------------------------
     1 NoMix/Diag. 0.10E+00    0.9     0.02076578       -47.1546335726 -4.72E+01
     2 Broy./Diag. 0.10E+00    1.9     0.00009298       -47.1138473122  4.08E-02
     3 Broy./Diag. 0.10E+00    2.0     0.00096087       -47.1531696871 -3.93E-02
     4 Broy./Diag. 0.10E+00    2.0     0.00002330       -47.1605400858 -7.37E-03
     5 Broy./Diag. 0.10E+00    2.1     0.00025091       -47.1604379920  1.02E-04
     6 Broy./Diag. 0.10E+00    2.1     0.00000912       -47.1604967858 -5.88E-05
     7 Broy./Diag. 0.10E+00    2.2     0.00014970       -47.1586834952  1.81E-03
     8 Broy./Diag. 0.10E+00    2.2     0.00001853       -47.1576785429  1.00E-03
     9 Broy./Diag. 0.10E+00    2.3     0.00019180       -47.1570772108  6.01E-04
    10 Broy./Diag. 0.10E+00    2.4     0.00000945       -47.1567122465  3.65E-04
    11 Broy./Diag. 0.10E+00    2.4     0.00009392       -47.1565294040  1.83E-04
    12 Broy./Diag. 0.10E+00    2.4     0.00000183       -47.1564869010  4.25E-05
    13 Broy./Diag. 0.10E+00    2.4     0.00000541       -47.1566008382 -1.14E-04
    14 Broy./Diag. 0.10E+00    2.4     0.00000079       -47.1566210054 -2.02E-05
    15 Broy./Diag. 0.10E+00    2.4     0.00001184       -47.1564454578  1.76E-04
    16 Broy./Diag. 0.10E+00    2.4     0.00000236       -47.1564215239  2.39E-05
    17 Broy./Diag. 0.10E+00    2.4     0.00000231       -47.1564685758 -4.71E-05
    18 Broy./Diag. 0.10E+00    2.4     0.00000199       -47.1565133249 -4.47E-05
    19 Broy./Diag. 0.10E+00    2.4     0.00000190       -47.1565312305 -1.79E-05
    20 Broy./Diag. 0.10E+00    2.4     0.00000186       -47.1565235443  7.69E-06
    21 Broy./Diag. 0.10E+00    2.4     0.00000267       -47.1565023702  2.12E-05
    22 Broy./Diag. 0.10E+00    2.4     0.00000323       -47.1564789191  2.35E-05
    23 Broy./Diag. 0.10E+00    2.4     0.00000353       -47.1564594243  1.95E-05
    24 Broy./Diag. 0.10E+00    2.4     0.00000080       -47.1564583032  1.12E-06
    25 Broy./Diag. 0.10E+00    2.4     0.00000032       -47.1564681966 -9.89E-06
    26 Broy./Diag. 0.10E+00    2.4     0.00000029       -47.1564629514  5.25E-06

  *** SCF run converged in    26 steps ***


  Electronic density on regular grids:         -8.9999571034        0.0000428966
  Core density on regular grids:                9.0000000000       -0.0000000000
  Total charge density on r-space grids:        0.0000428966
  Total charge density g-space grids:           0.0000428966

  Overlap energy of the core charge distribution:               0.00000000000000
  Self energy of the core charge distribution:                -96.60649019442629
  Core Hamiltonian energy:                                     29.76003221862445
  Hartree energy:                                              26.73785378070900
  Exchange-correlation energy:                                 -7.04654051010320
  Dispersion energy:                                           -0.00000120476189
  Electronic entropic energy:                                  -0.00131704147593
  Fermi energy:                                                -0.09164344420011

  Total energy:                                               -47.15646295143385

  outer SCF iter =    1 RMS gradient =   0.29E-06 energy =        -47.1564629514
  outer SCF loop converged in   1 iterations or   26 steps


 *** WARNING in qs_loc_utils.F:1500 :: User requested the calculation of ***
 *** the localized wavefunction but the section LOCALIZE was not         ***
 *** specified. Localization will not be performed!                      ***


 -------------------------------------------------------------------------------
 -                                                                             -
 -  BSSE CALCULATION         FRAGMENT CONF: 11        FRAGMENT SUBCONF: 10     -
 -                           CHARGE =     0           MULTIPLICITY =     0     -
 -                                                                             -
 -                 ATOM INDEX                              ATOM NAME           -
 -                 ----------                              ---------           -
 -                      1                                   C                  -
 -                      2                                   C                  -
 -                      3                                   C                  -
 -                      4                                   C                  -
 -                      5                                   C                  -
 -                      6                                   C                  -
 -                      7                                   C                  -
 -                      8                                   C                  -
 -                      9                                   C                  -
 -                     10                                   C                  -
 -                     11                                   C                  -
 -                     12                                   C                  -
 -                     13                                   C                  -
 -                     14                                   C                  -
 -                     15                                   C                  -
 -                     16                                   C                  -
 -                     17                                   C                  -
 -                     18                                   C                  -
 -                     19                                   C                  -
 -                     20                                   C                  -
 -                     21                                   C                  -
 -                     22                                   C                  -
 -                     23                                   C                  -
 -                     24                                   C                  -
 -                     25                                   C                  -
 -                     26                                   C                  -
 -                     27                                   C                  -
 -                     28                                   C                  -
 -                     29                                   C                  -
 -                     30                                   C                  -
 -                     31                                   C                  -
 -                     32                                   C                  -
 -                     33                                   C                  -
 -                     34                                   C                  -
 -                     35                                   C                  -
 -                     36                                   C                  -
 -                     37                                   C                  -
 -                     38                                   C                  -
 -                     39                                   C                  -
 -                     40                                   C                  -
 -                     41                                   C                  -
 -                     42                                   C                  -
 -                     43                                   C                  -
 -                     44                                   C                  -
 -                     45                                   C                  -
 -                     46                                   C                  -
 -                     47                                   C                  -
 -                     48                                   C                  -
 -                     49                                   C                  -
 -                     50                                   C                  -
 -                     51                                   C                  -
 -                     52                                   C                  -
 -                     53                                   C                  -
 -                     54                                   C                  -
 -                     55                                   C                  -
 -                     56                                   C                  -
 -                     57                                   C                  -
 -                     58                                   C                  -
 -                     59                                   C                  -
 -                     60                                   C                  -
 -                     61                                   C                  -
 -                     62                                   C                  -
 -                     63                                   C                  -
 -                     64                                   C                  -
 -                     65                                   C                  -
 -                     66                                   C                  -
 -                     67                                   C                  -
 -                     68                                   C                  -
 -                     69                                   C                  -
 -                     70                                   C                  -
 -                     71                                   C                  -
 -                     72                                   C                  -
 -                     73                                   C                  -
 -                     74                                   C                  -
 -                     75                                   C                  -
 -                     76                                   C                  -
 -                     77                                   C                  -
 -                     78                                   C                  -
 -                     79                                   C                  -
 -                     80                                   C                  -
 -                     81                                   C                  -
 -                     82                                   C                  -
 -                     83                                   C                  -
 -                     84                                   C                  -
 -                     85                                   C                  -
 -                     86                                   C                  -
 -                     87                                   C                  -
 -                     88                                   C                  -
 -                     89                                   C                  -
 -                     90                                   C                  -
 -                     91                                   C                  -
 -                     92                                   C                  -
 -                     93                                   C                  -
 -                     94                                   C                  -
 -                     95                                   C                  -
 -                     96                                   C                  -
 -                     97                                   C                  -
 -                     98                                   C                  -
 -                     99                                   C                  -
 -                    100                                   C                  -
 -                    101                                   C                  -
 -                    102                                   C                  -
 -                    103                                   C                  -
 -                    104                                   C                  -
 -                    105                                   C                  -
 -                    106                                   C                  -
 -                    107                                   C                  -
 -                    108                                   C                  -
 -                    109                                   C                  -
 -                    110                                   C                  -
 -                    111                                   C                  -
 -                    112                                   C                  -
 -                    113                                   Na_ghost           -
 -------------------------------------------------------------------------------

 *******************************************************************************
 *******************************************************************************
 **                                                                           **
 **     #####                         ##              ##                      **
 **    ##   ##            ##          ##              ##                      **
 **   ##     ##                       ##            ######                    **
 **   ##     ##  ##   ##  ##   #####  ##  ##   ####   ##    #####    #####    **
 **   ##     ##  ##   ##  ##  ##      ## ##   ##      ##   ##   ##  ##   ##   **
 **   ##  ## ##  ##   ##  ##  ##      ####     ###    ##   ######   ######    **
 **    ##  ###   ##   ##  ##  ##      ## ##      ##   ##   ##       ##        **
 **     #######   #####   ##   #####  ##  ##  ####    ##    #####   ##        **
 **           ##                                                    ##        **
 **                                                                           **
 **                                                ... make the atoms dance   **
 **                                                                           **
 **            Copyright (C) by CP2K developers group (2000-2022)             **
 **                      J. Chem. Phys. 152, 194103 (2020)                    **
 **                                                                           **
 *******************************************************************************


 TOTAL NUMBERS AND MAXIMUM NUMBERS

  Total number of            - Atomic kinds:                                   2
                             - Atoms:                                        113
                             - Shell sets:                                   113
                             - Shells:                                       565
                             - Primitive Cartesian functions:                567
                             - Cartesian basis functions:                   1577
                             - Spherical basis functions:                   1465

  Maximum angular momentum of- Orbital basis functions:                        2
                             - Local part of the GTH pseudopotential:          2
                             - Non-local part of the GTH pseudopotential:      0


 SCF PARAMETERS         Density guess:                                    ATOMIC
                        --------------------------------------------------------
                        max_scf:                                             400
                        max_scf_history:                                       0
                        max_diis:                                              4
                        --------------------------------------------------------
                        eps_scf:                                        3.00E-07
                        eps_scf_history:                                0.00E+00
                        eps_diis:                                       1.00E-01
                        eps_eigval:                                     1.00E-05
                        --------------------------------------------------------
                        level_shift [a.u.]:                             0.000000
                        added MOs                                       100    0
                        --------------------------------------------------------
                        Mixing method:                            BROYDEN_MIXING
                                                charge density mixing in g-space
                        --------------------------------------------------------
                        Smear method:                                FERMI_DIRAC
                        Electronic temperature [K]:                        300.0
                        Electronic temperature [a.u.]:                  9.50E-04
                        Accuracy threshold:                             1.00E-10
                        --------------------------------------------------------
                        Outer loop SCF in use 
                        No variables optimised in outer loop
                        eps_scf                                         1.00E-06
                        max_scf                                              100
                        DIIS optimization
                        DIIS buffer length                                     3
                        step_size                                       5.00E-01

 Number of electrons:                                                        448
 Number of occupied orbitals:                                                224
 Number of molecular orbitals:                                               324

 Number of orbital functions:                                               1465
 Number of independent orbital functions:                                   1465

 Extrapolation method: initial_guess


 SCF WAVEFUNCTION OPTIMIZATION

  Step     Update method      Time    Convergence         Total energy    Change
  ------------------------------------------------------------------------------
     1 NoMix/Diag. 0.10E+00    2.0     0.92621923      -631.5188450465 -6.32E+02
     2 Broy./Diag. 0.10E+00    3.3     0.21716849      -610.2310247718  2.13E+01
     3 Broy./Diag. 0.10E+00    3.4     0.31129258      -616.6867745500 -6.46E+00
     4 Broy./Diag. 0.10E+00    3.4     0.75140652      -629.3691016867 -1.27E+01
     5 Broy./Diag. 0.10E+00    3.5     0.04476080      -633.7976888747 -4.43E+00
     6 Broy./Diag. 0.10E+00    3.5     0.96516944      -634.2311749468 -4.33E-01
     7 Broy./Diag. 0.10E+00    3.6     0.12521758      -634.7236965516 -4.93E-01
     8 Broy./Diag. 0.10E+00    3.6     0.08647005      -634.8084331440 -8.47E-02
     9 Broy./Diag. 0.10E+00    3.7     0.61040540      -634.9613259775 -1.53E-01
    10 Broy./Diag. 0.10E+00    3.8     0.62725191      -635.1407806061 -1.79E-01
    11 Broy./Diag. 0.10E+00    3.8     0.05551021      -635.3261055076 -1.85E-01
    12 Broy./Diag. 0.10E+00    3.8     0.13905782      -635.3825853417 -5.65E-02
    13 Broy./Diag. 0.10E+00    3.8     0.02088124      -635.4160651276 -3.35E-02
    14 Broy./Diag. 0.10E+00    3.8     0.33987829      -635.5469576206 -1.31E-01
    15 Broy./Diag. 0.10E+00    3.8     0.22195119      -635.6336169748 -8.67E-02
    16 Broy./Diag. 0.10E+00    3.8     0.05443155      -635.6968604881 -6.32E-02
    17 Broy./Diag. 0.10E+00    3.8     0.00219879      -635.7631359472 -6.63E-02
    18 Broy./Diag. 0.10E+00    3.8     0.02552908      -635.8675047668 -1.04E-01
    19 Broy./Diag. 0.10E+00    3.8     0.01361764      -635.9292264233 -6.17E-02
    20 Broy./Diag. 0.10E+00    3.8     0.01440682      -635.9198146776  9.41E-03
    21 Broy./Diag. 0.10E+00    3.8     0.00805910      -635.8955201168  2.43E-02
    22 Broy./Diag. 0.10E+00    3.8     0.00428121      -635.8795099728  1.60E-02
    23 Broy./Diag. 0.10E+00    3.8     0.00648318      -635.8545648185  2.49E-02
    24 Broy./Diag. 0.10E+00    3.8     0.00520197      -635.8480430673  6.52E-03
    25 Broy./Diag. 0.10E+00    3.8     0.00096382      -635.8688055379 -2.08E-02
    26 Broy./Diag. 0.10E+00    3.8     0.00122809      -635.8901577851 -2.14E-02
    27 Broy./Diag. 0.10E+00    3.8     0.00116772      -635.9016535602 -1.15E-02
    28 Broy./Diag. 0.10E+00    3.8     0.00038751      -635.9085913816 -6.94E-03
    29 Broy./Diag. 0.10E+00    3.8     0.00035469      -635.9146678874 -6.08E-03
    30 Broy./Diag. 0.10E+00    3.8     0.00026786      -635.9248068278 -1.01E-02
    31 Broy./Diag. 0.10E+00    3.8     0.00026232      -635.9295240069 -4.72E-03
    32 Broy./Diag. 0.10E+00    3.8     0.00047441      -635.9311314459 -1.61E-03
    33 Broy./Diag. 0.10E+00    3.8     0.00019762      -635.9305512433  5.80E-04
    34 Broy./Diag. 0.10E+00    3.8     0.00016869      -635.9265118620  4.04E-03
    35 Broy./Diag. 0.10E+00    3.8     0.00011473      -635.9275129395 -1.00E-03
    36 Broy./Diag. 0.10E+00    3.8     0.00011330      -635.9306692065 -3.16E-03
    37 Broy./Diag. 0.10E+00    3.8     0.00010754      -635.9332678331 -2.60E-03
    38 Broy./Diag. 0.10E+00    3.8     0.00010036      -635.9335540097 -2.86E-04
    39 Broy./Diag. 0.10E+00    3.8     0.00007424      -635.9335573820 -3.37E-06
    40 Broy./Diag. 0.10E+00    3.8     0.00005961      -635.9346834541 -1.13E-03
    41 Broy./Diag. 0.10E+00    3.8     0.00004979      -635.9356422368 -9.59E-04
    42 Broy./Diag. 0.10E+00    3.8     0.00009315      -635.9359775291 -3.35E-04
    43 Broy./Diag. 0.10E+00    3.8     0.00007915      -635.9356749357  3.03E-04
    44 Broy./Diag. 0.10E+00    3.8     0.00006208      -635.9348836024  7.91E-04
    45 Broy./Diag. 0.10E+00    3.8     0.00005244      -635.9345466632  3.37E-04
    46 Broy./Diag. 0.10E+00    3.8     0.00004958      -635.9350787684 -5.32E-04
    47 Broy./Diag. 0.10E+00    3.8     0.00004670      -635.9359712904 -8.93E-04
    48 Broy./Diag. 0.10E+00    3.8     0.00004235      -635.9362431040 -2.72E-04
    49 Broy./Diag. 0.10E+00    3.8     0.00005230      -635.9356110992  6.32E-04
    50 Broy./Diag. 0.10E+00    3.8     0.00002723      -635.9352449538  3.66E-04
    51 Broy./Diag. 0.10E+00    3.8     0.00000996      -635.9354277919 -1.83E-04
    52 Broy./Diag. 0.10E+00    3.8     0.00001571      -635.9357080157 -2.80E-04
    53 Broy./Diag. 0.10E+00    3.8     0.00001437      -635.9356662309  4.18E-05
    54 Broy./Diag. 0.10E+00    3.8     0.00001135      -635.9353783939  2.88E-04
    55 Broy./Diag. 0.10E+00    3.8     0.00000780      -635.9352483591  1.30E-04
    56 Broy./Diag. 0.10E+00    3.8     0.00001578      -635.9353144214 -6.61E-05
    57 Broy./Diag. 0.10E+00    3.8     0.00000878      -635.9354145494 -1.00E-04
    58 Broy./Diag. 0.10E+00    3.8     0.00000727      -635.9354624036 -4.79E-05
    59 Broy./Diag. 0.10E+00    3.8     0.00001029      -635.9354503074  1.21E-05
    60 Broy./Diag. 0.10E+00    3.8     0.00000770      -635.9354173383  3.30E-05
    61 Broy./Diag. 0.10E+00    3.8     0.00000585      -635.9353888450  2.85E-05
    62 Broy./Diag. 0.10E+00    3.8     0.00000468      -635.9353753026  1.35E-05
    63 Broy./Diag. 0.10E+00    3.8     0.00000719      -635.9354015902 -2.63E-05
    64 Broy./Diag. 0.10E+00    3.8     0.00000582      -635.9353988952  2.69E-06
    65 Broy./Diag. 0.10E+00    3.8     0.00000391      -635.9353169620  8.19E-05
    66 Broy./Diag. 0.10E+00    3.8     0.00000396      -635.9352172871  9.97E-05
    67 Broy./Diag. 0.10E+00    3.8     0.00000203      -635.9351784475  3.88E-05
    68 Broy./Diag. 0.10E+00    3.8     0.00000241      -635.9351926246 -1.42E-05
    69 Broy./Diag. 0.10E+00    3.8     0.00000321      -635.9352044637 -1.18E-05
    70 Broy./Diag. 0.10E+00    3.8     0.00000158      -635.9352100629 -5.60E-06
    71 Broy./Diag. 0.10E+00    3.8     0.00000129      -635.9352160371 -5.97E-06
    72 Broy./Diag. 0.10E+00    3.8     0.00000072      -635.9352162360 -1.99E-07
    73 Broy./Diag. 0.10E+00    3.8     0.00000160      -635.9352201447 -3.91E-06
    74 Broy./Diag. 0.10E+00    3.8     0.00000169      -635.9352176900  2.45E-06
    75 Broy./Diag. 0.10E+00    3.8     0.00000088      -635.9352022462  1.54E-05
    76 Broy./Diag. 0.10E+00    3.8     0.00000097      -635.9351850910  1.72E-05
    77 Broy./Diag. 0.10E+00    3.8     0.00000075      -635.9351766245  8.47E-06
    78 Broy./Diag. 0.10E+00    3.8     0.00000086      -635.9351752241  1.40E-06
    79 Broy./Diag. 0.10E+00    3.8     0.00000107      -635.9351731937  2.03E-06
    80 Broy./Diag. 0.10E+00    3.8     0.00000079      -635.9351735914 -3.98E-07
    81 Broy./Diag. 0.10E+00    3.8     0.00000058      -635.9351746934 -1.10E-06
    82 Broy./Diag. 0.10E+00    3.8     0.00000021      -635.9351742629  4.31E-07

  *** SCF run converged in    82 steps ***


  Electronic density on regular grids:       -447.9999999999        0.0000000001
  Core density on regular grids:              447.9999999996       -0.0000000004
  Total charge density on r-space grids:       -0.0000000003
  Total charge density g-space grids:          -0.0000000003

  Overlap energy of the core charge distribution:               0.00001865557362
  Self energy of the core charge distribution:              -1493.52088779770361
  Core Hamiltonian energy:                                    464.65526585007979
  Hartree energy:                                             587.12071512459295
  Exchange-correlation energy:                               -194.06577296878336
  Dispersion energy:                                           -0.11774154511310
  Electronic entropic energy:                                  -0.00677158168304
  Fermi energy:                                                -0.15846597037143

  Total energy:                                              -635.93517426285734

  outer SCF iter =    1 RMS gradient =   0.21E-06 energy =       -635.9351742629
  outer SCF loop converged in   1 iterations or   82 steps


 *** WARNING in qs_loc_utils.F:1500 :: User requested the calculation of ***
 *** the localized wavefunction but the section LOCALIZE was not         ***
 *** specified. Localization will not be performed!                      ***


 -------------------------------------------------------------------------------
 -                                                                             -
 -  BSSE CALCULATION         FRAGMENT CONF: 11        FRAGMENT SUBCONF: 01     -
 -                           CHARGE =     0           MULTIPLICITY =     0     -
 -                                                                             -
 -                 ATOM INDEX                              ATOM NAME           -
 -                 ----------                              ---------           -
 -                      1                                   C_ghost            -
 -                      2                                   C_ghost            -
 -                      3                                   C_ghost            -
 -                      4                                   C_ghost            -
 -                      5                                   C_ghost            -
 -                      6                                   C_ghost            -
 -                      7                                   C_ghost            -
 -                      8                                   C_ghost            -
 -                      9                                   C_ghost            -
 -                     10                                   C_ghost            -
 -                     11                                   C_ghost            -
 -                     12                                   C_ghost            -
 -                     13                                   C_ghost            -
 -                     14                                   C_ghost            -
 -                     15                                   C_ghost            -
 -                     16                                   C_ghost            -
 -                     17                                   C_ghost            -
 -                     18                                   C_ghost            -
 -                     19                                   C_ghost            -
 -                     20                                   C_ghost            -
 -                     21                                   C_ghost            -
 -                     22                                   C_ghost            -
 -                     23                                   C_ghost            -
 -                     24                                   C_ghost            -
 -                     25                                   C_ghost            -
 -                     26                                   C_ghost            -
 -                     27                                   C_ghost            -
 -                     28                                   C_ghost            -
 -                     29                                   C_ghost            -
 -                     30                                   C_ghost            -
 -                     31                                   C_ghost            -
 -                     32                                   C_ghost            -
 -                     33                                   C_ghost            -
 -                     34                                   C_ghost            -
 -                     35                                   C_ghost            -
 -                     36                                   C_ghost            -
 -                     37                                   C_ghost            -
 -                     38                                   C_ghost            -
 -                     39                                   C_ghost            -
 -                     40                                   C_ghost            -
 -                     41                                   C_ghost            -
 -                     42                                   C_ghost            -
 -                     43                                   C_ghost            -
 -                     44                                   C_ghost            -
 -                     45                                   C_ghost            -
 -                     46                                   C_ghost            -
 -                     47                                   C_ghost            -
 -                     48                                   C_ghost            -
 -                     49                                   C_ghost            -
 -                     50                                   C_ghost            -
 -                     51                                   C_ghost            -
 -                     52                                   C_ghost            -
 -                     53                                   C_ghost            -
 -                     54                                   C_ghost            -
 -                     55                                   C_ghost            -
 -                     56                                   C_ghost            -
 -                     57                                   C_ghost            -
 -                     58                                   C_ghost            -
 -                     59                                   C_ghost            -
 -                     60                                   C_ghost            -
 -                     61                                   C_ghost            -
 -                     62                                   C_ghost            -
 -                     63                                   C_ghost            -
 -                     64                                   C_ghost            -
 -                     65                                   C_ghost            -
 -                     66                                   C_ghost            -
 -                     67                                   C_ghost            -
 -                     68                                   C_ghost            -
 -                     69                                   C_ghost            -
 -                     70                                   C_ghost            -
 -                     71                                   C_ghost            -
 -                     72                                   C_ghost            -
 -                     73                                   C_ghost            -
 -                     74                                   C_ghost            -
 -                     75                                   C_ghost            -
 -                     76                                   C_ghost            -
 -                     77                                   C_ghost            -
 -                     78                                   C_ghost            -
 -                     79                                   C_ghost            -
 -                     80                                   C_ghost            -
 -                     81                                   C_ghost            -
 -                     82                                   C_ghost            -
 -                     83                                   C_ghost            -
 -                     84                                   C_ghost            -
 -                     85                                   C_ghost            -
 -                     86                                   C_ghost            -
 -                     87                                   C_ghost            -
 -                     88                                   C_ghost            -
 -                     89                                   C_ghost            -
 -                     90                                   C_ghost            -
 -                     91                                   C_ghost            -
 -                     92                                   C_ghost            -
 -                     93                                   C_ghost            -
 -                     94                                   C_ghost            -
 -                     95                                   C_ghost            -
 -                     96                                   C_ghost            -
 -                     97                                   C_ghost            -
 -                     98                                   C_ghost            -
 -                     99                                   C_ghost            -
 -                    100                                   C_ghost            -
 -                    101                                   C_ghost            -
 -                    102                                   C_ghost            -
 -                    103                                   C_ghost            -
 -                    104                                   C_ghost            -
 -                    105                                   C_ghost            -
 -                    106                                   C_ghost            -
 -                    107                                   C_ghost            -
 -                    108                                   C_ghost            -
 -                    109                                   C_ghost            -
 -                    110                                   C_ghost            -
 -                    111                                   C_ghost            -
 -                    112                                   C_ghost            -
 -                    113                                   Na                 -
 -------------------------------------------------------------------------------

 *******************************************************************************
 *******************************************************************************
 **                                                                           **
 **     #####                         ##              ##                      **
 **    ##   ##            ##          ##              ##                      **
 **   ##     ##                       ##            ######                    **
 **   ##     ##  ##   ##  ##   #####  ##  ##   ####   ##    #####    #####    **
 **   ##     ##  ##   ##  ##  ##      ## ##   ##      ##   ##   ##  ##   ##   **
 **   ##  ## ##  ##   ##  ##  ##      ####     ###    ##   ######   ######    **
 **    ##  ###   ##   ##  ##  ##      ## ##      ##   ##   ##       ##        **
 **     #######   #####   ##   #####  ##  ##  ####    ##    #####   ##        **
 **           ##                                                    ##        **
 **                                                                           **
 **                                                ... make the atoms dance   **
 **                                                                           **
 **            Copyright (C) by CP2K developers group (2000-2022)             **
 **                      J. Chem. Phys. 152, 194103 (2020)                    **
 **                                                                           **
 *******************************************************************************


 TOTAL NUMBERS AND MAXIMUM NUMBERS

  Total number of            - Atomic kinds:                                   2
                             - Atoms:                                        113
                             - Shell sets:                                   113
                             - Shells:                                       565
                             - Primitive Cartesian functions:                567
                             - Cartesian basis functions:                   1577
                             - Spherical basis functions:                   1465

  Maximum angular momentum of- Orbital basis functions:                        2
                             - Local part of the GTH pseudopotential:          2
                             - Non-local part of the GTH pseudopotential:      1


 SCF PARAMETERS         Density guess:                                    ATOMIC
                        --------------------------------------------------------
                        max_scf:                                             400
                        max_scf_history:                                       0
                        max_diis:                                              4
                        --------------------------------------------------------
                        eps_scf:                                        3.00E-07
                        eps_scf_history:                                0.00E+00
[...]
  Total charge density on r-space grids:        0.0000430227
  Total charge density g-space grids:           0.0000430227

  Overlap energy of the core charge distribution:               0.00001865557362
  Self energy of the core charge distribution:              -1590.12737799213005
  Core Hamiltonian energy:                                    494.69454068441684
  Hartree energy:                                             613.73388629874376
  Exchange-correlation energy:                               -201.32357138822425
  Dispersion energy:                                           -0.12325883248128
  Electronic entropic energy:                                  -0.00787894349011
  Fermi energy:                                                -0.14443092070051

  Total energy:                                              -683.15364151822905

  outer SCF iter =    1 RMS gradient =   0.22E-06 energy =       -683.1536415182
  outer SCF loop converged in   1 iterations or   84 steps


 *** WARNING in qs_loc_utils.F:1500 :: User requested the calculation of ***
 *** the localized wavefunction but the section LOCALIZE was not         ***
 *** specified. Localization will not be performed!                      ***


 -------------------------------------------------------------------------------
 -                                                                             -
 -                                 BSSE RESULTS                                -
 -                                                                             -
 -                 CP-corrected Total energy:     -683.152299                  -
 -                                                                             -
 -                       1-body contribution:     -635.934208                  -
 -                       1-body contribution:      -47.156463                  -
 -                                                                             -
 -                       2-body contribution:       -0.061628                  -
 -                 BSSE-free interaction energy:       -0.061628               -
 -------------------------------------------------------------------------------

 -------------------------------------------------------------------------------
 -                                                                             -
 -                                DBCSR STATISTICS                             -
 -                                                                             -
 -------------------------------------------------------------------------------
 COUNTER                                    TOTAL       BLAS       SMM       ACC
 flops     9 x     9 x     9                90396     100.0%      0.0%      0.0%
 flops     9 x     9 x    32               559872     100.0%      0.0%      0.0%
 flops     9 x     9 x    68               903312     100.0%      0.0%      0.0%
 flops     9 x     9 x    73               993384     100.0%      0.0%      0.0%
 flops     9 x     9 x    64              1721088     100.0%      0.0%      0.0%
 flops    13 x     9 x     9              4018248     100.0%      0.0%      0.0%
 flops     9 x    13 x     9              4094064     100.0%      0.0%      0.0%
 flops     9 x     9 x    96              5163264     100.0%      0.0%      0.0%
 flops    13 x     9 x    32             42861312     100.0%      0.0%      0.0%
 flops     9 x    13 x    32             43670016     100.0%      0.0%      0.0%
 flops    13 x     9 x    68             69153552     100.0%      0.0%      0.0%
 flops     9 x    13 x    68             70458336     100.0%      0.0%      0.0%
 flops    13 x     9 x    73             76049064     100.0%      0.0%      0.0%
 flops     9 x    13 x    73             77483952     100.0%      0.0%      0.0%
 flops    13 x     9 x    64            131758848     100.0%      0.0%      0.0%
 flops     9 x    13 x    64            134244864     100.0%      0.0%      0.0%
 flops    13 x     9 x    96            395276544     100.0%      0.0%      0.0%
 flops     9 x    13 x    96            402734592     100.0%      0.0%      0.0%
 flops    13 x    13 x     9            622904256     100.0%      0.0%      0.0%
 flops    13 x    13 x    32           6644312064     100.0%      0.0%      0.0%
 flops    13 x    13 x    73          11789039808     100.0%      0.0%      0.0%
 flops    13 x    13 x    68          22747540608     100.0%      0.0%      0.0%
 flops    13 x    13 x    64          31745046528     100.0%      0.0%      0.0%
 flops    13 x    13 x    96          95235139584     100.0%      0.0%      0.0%
 flops inhomo. stacks                           0       0.0%      0.0%      0.0%
 flops total                       170.245218E+09     100.0%      0.0%      0.0%
 flops max/rank                     11.104046E+09     100.0%      0.0%      0.0%
 matmuls inhomo. stacks                         0       0.0%      0.0%      0.0%
 matmuls total                            6776378     100.0%      0.0%      0.0%
 number of processed stacks                 25306     100.0%      0.0%      0.0%
 average stack size                                   267.8       0.0       0.0
 marketing flops                   259.026682E+09
 -------------------------------------------------------------------------------
 # multiplications                            320
 max memory usage/rank               1.211544E+09
 # max total images/rank                        1
 # max 3D layers                                1
 # MPI messages exchanged                   30720
 MPI messages size (bytes):
  total size                         6.160754E+09
  min size                           0.000000E+00
  max size                         286.464000E+03
  average size                     200.545359E+03
 MPI breakdown and total messages size (bytes):
             size <=      128                2340                        0
       128 < size <=     8192                 156                   101088
      8192 < size <=    32768                 864                 22783680
     32768 < size <=   131072                2592                243025920
    131072 < size <=  4194304               24768               5894846784
   4194304 < size <= 16777216                   0                        0
  16777216 < size                               0                        0
 -------------------------------------------------------------------------------
 -                                                                             -
 -                      DBCSR MESSAGE PASSING PERFORMANCE                      -
 -                                                                             -
 -------------------------------------------------------------------------------
 ROUTINE             CALLS      AVE VOLUME [Bytes]
 MP_Bcast               25                     12.
 MP_Allreduce         2312                      8.
 MP_Alltoall          9020                 240717.
 MP_ISend             5120                  81236.
 MP_IRecv             5120                  70896.
 -------------------------------------------------------------------------------

 -------------------------------------------------------------------------------
 -                                                                             -
 -                                DBM STATISTICS                               -
 -                                                                             -
 -------------------------------------------------------------------------------
    M  x    N  x    K                                          COUNT     PERCENT
 -------------------------------------------------------------------------------

 -------------------------------------------------------------------------------
 -                                                                             -
 -                                GRID STATISTICS                              -
 -                                                                             -
 -------------------------------------------------------------------------------
 LP    KERNEL             BACKEND                              COUNT     PERCENT
 4     collocate general  REF                               15372926      49.75%
 4     integrate general  REF                               15166578      49.08%
 3     collocate general  REF                                 167485       0.54%
 3     integrate general  REF                                 165034       0.53%
 2     collocate general  REF                                  11368       0.04%
 2     integrate general  REF                                  11172       0.04%
 0     collocate general  REF                                   5424       0.02%
 -------------------------------------------------------------------------------

 MEMORY| Estimated peak process memory [MiB]                                1156

 -------------------------------------------------------------------------------
 -                                                                             -
 -                         MESSAGE PASSING PERFORMANCE                         -
 -                                                                             -
 -------------------------------------------------------------------------------

 ROUTINE             CALLS      AVE VOLUME [Bytes]
 MP_Group               24
 MP_Bcast              793                1211866.
 MP_Allreduce         4197                   2416.
 MP_Sync               370
 MP_Alltoall          4260               34308792.
 MP_SendRecv         13590                 391079.
 MP_ISendRecv         9600                 251100.
 MP_Wait             41320
 MP_comm_split          26
 MP_ISend            27190                1103691.
 MP_IRecv            27190                1103833.
 MP_Recv               160                 362752.
 -------------------------------------------------------------------------------


 -------------------------------------------------------------------------------
 -                                                                             -
 -                           R E F E R E N C E S                               -
 -                                                                             -
 -------------------------------------------------------------------------------
 
 CP2K version 2023.1, the CP2K developers group (2023).
 CP2K is freely available from https://www.cp2k.org/ .

 Kuehne,Thomas D.; Iannuzzi,Marcella; Del Ben,Mauro;
 Rybkin,Vladimir V.; Seewald,Patrick; Stein,Frederick; Laino,Teodoro;
 Khaliullin,Rustam Z.; Schuett,Ole; Schiffmann,Florian; Golze,Dorothea;
 Wilhelm,Jan; Chulkov,Sergey; Bani-Hashemian,Mohammad Hossein;
 Weber,Valery; Borstnik,Urban; Taillefumier,Mathieu;
 Jakobovits,Alice Shoshana; Lazzaro,Alfio; Pabst,Hans; Mueller,Tiziano;
 Schade,Robert; Guidon,Manuel; Andermatt,Samuel; Holmberg,Nico;
 Schenter,Gregory K.; Hehn,Anna; Bussy,Augustin; Belleflamme,Fabian;
 Tabacchi,Gloria; Gloess,Andreas; Lass,Michael; Bethune,Iain;
 Mundy,Christopher J.; Plessl,Christian; Watkins,Matt;
 VandeVondele,Joost; Krack,Matthias; Hutter,Juerg. 
 The Journal of Chemical Physics, 152 (19), (2020). 
 CP2K: An electronic structure and molecular dynamics software package -
 Quickstep: Efficient and accurate electronic structure calculations.
 https://doi.org/10.1063/5.0007045

 Goerigk, Lars; Hansen, Andreas; Bauer, Christoph; Ehrlich, Stephan;
 Najibi, Asim; Grimme, Stefan. , 19 (48), (2017). 
 A look at the density functional theory zoo with the advanced GMTKN55 database
 for general main group thermochemistry, kinetics and noncovalent interactions.
 https://doi.org/10.1039/C7CP04913G

 Schuett, Ole; Messmer, Peter; Hutter, Juerg; VandeVondele, Joost. 
 Electronic Structure Calculations on Graphics Processing Units, John
 Wiley & Sons, Ltd, 173-190 (2016). 
 GPU-Accelerated Sparse Matrix-Matrix Multiplication for
 Linear Scaling Density Functional Theory.
 https://doi.org/10.1002/9781118670712.ch8

 Borstnik, U; VandeVondele, J; Weber, V; Hutter, J. 
 PARALLEL COMPUTING, 40 (5-6), 47-58 (2014). 
 Sparse matrix multiplication: The distributed block-compressed sparse
 row library.
 https://doi.org/10.1016/j.parco.2014.03.012

 Hutter, J; Iannuzzi, M; Schiffmann, F; VandeVondele, J. 
 WIREs Comput Mol Sci., 4 (1), 15-25 (2014). 
 CP2K: atomistic simulations of condensed matter systems.
 https://doi.org/10.1002/wcms.1159

 Marek, A; Blum, V; Johanni, R; Havu, V; Lang, B; Auckenthaler, T;
 Heinecke, A; Bungartz, H; Lederer, H. 
 Journal of Physics: Condensed Matter, 26 (21), (2014). 
 The ELPA library: scalable parallel eigenvalue solutions for
 electronic structure
 theory and computational science.
 https://doi.org/10.1088/0953-8984/26/21/213201

 Grimme, S; Ehrlich, S; Goerigk, L. 
 JOURNAL OF COMPUTATIONAL CHEMISTRY, 32, 1456 (2011). 
 Effect of the damping function in dispersion corrected density functional theory.
 https://doi.org/10.1002/jcc.21759

 Grimme, S; Antony, J; Ehrlich, S; Krieg, H. 
 JOURNAL OF CHEMICAL PHYSICS, 132 (15), 154104 (2010). 
 A consistent and accurate ab initio parametrization of density
 functional dispersion correction (DFT-D) for the 94 elements H-Pu.
 https://doi.org/10.1063/1.3382344

 VandeVondele, J; Hutter, J. 
 JOURNAL OF CHEMICAL PHYSICS, 127 (11), 114105 (2007). 
 Gaussian basis sets for accurate calculations on molecular systems in
 gas and condensed phases.
 https://doi.org/10.1063/1.2770708

 Krack, M. 
 THEORETICAL CHEMISTRY ACCOUNTS, 114 (1-3), 145-152 (2005). 
 Pseudopotentials for H to Kr optimized for gradient-corrected
 exchange-correlation functionals.
 https://doi.org/10.1007/s00214-005-0655-y

 VandeVondele, J; Krack, M; Mohamed, F; Parrinello, M; Chassaing, T;
 Hutter, J. COMPUTER PHYSICS COMMUNICATIONS, 167 (2), 103-128 (2005). 
 QUICKSTEP: Fast and accurate density functional calculations using a
 mixed Gaussian and plane waves approach.
 https://doi.org/10.1016/j.cpc.2004.12.014

 Frigo, M; Johnson, SG. 
 PROCEEDINGS OF THE IEEE, 93 (2), 216-231 (2005). 
 The design and implementation of FFTW3.
 https://doi.org/10.1109/JPROC.2004.840301

 Hartwigsen, C; Goedecker, S; Hutter, J. 
 PHYSICAL REVIEW B, 58 (7), 3641-3662 (1998). 
 Relativistic separable dual-space Gaussian pseudopotentials from H to Rn.
 https://doi.org/10.1103/PhysRevB.58.3641

 Lippert, G; Hutter, J; Parrinello, M. 
 MOLECULAR PHYSICS, 92 (3), 477-487 (1997). 
 A hybrid Gaussian and plane wave density functional scheme.
 https://doi.org/10.1080/002689797170220

 Perdew, JP; Burke, K; Ernzerhof, M. 
 PHYSICAL REVIEW LETTERS, 77 (18), 3865-3868 (1996). 
 Generalized gradient approximation made simple.
 https://doi.org/10.1103/PhysRevLett.77.3865

 Goedecker, S; Teter, M; Hutter, J. 
 PHYSICAL REVIEW B, 54 (3), 1703-1710 (1996). 
 Separable dual-space Gaussian pseudopotentials.
 https://doi.org/10.1103/PhysRevB.54.1703


 -------------------------------------------------------------------------------
 -                                                                             -
 -                                T I M I N G                                  -
 -                                                                             -
 -------------------------------------------------------------------------------
 SUBROUTINE                       CALLS  ASD         SELF TIME        TOTAL TIME
                                MAXIMUM       AVERAGE  MAXIMUM  AVERAGE  MAXIMUM
 CP2K                                 1  1.0    0.027    0.052 1171.939 1171.940
 qs_energies                          5  2.0    0.000    0.000 1169.386 1169.507
 scf_env_do_scf                       5  3.0    0.001    0.001 1161.834 1161.944
 scf_env_do_scf_inner_loop          320  4.0    0.008    0.018 1161.833 1161.943
 qs_ks_update_qs_env                320  5.0    0.002    0.002  460.407  460.466
 rebuild_ks_matrix                  320  6.0    0.001    0.001  460.265  460.327
 qs_ks_build_kohn_sham_matrix       320  7.0    0.041    0.045  460.264  460.326
 pw_transfer                       4185  8.9    0.337    0.371  332.509  337.775
 fft_wrap_pw1pw2                   3545  9.9    0.047    0.052  323.151  328.451
 fft_wrap_pw1pw2_150               1610 10.2   30.253   31.613  301.556  306.206
 qs_rho_update_rho_low              325  5.0    0.001    0.001  304.509  304.551
 calculate_rho_elec                 325  6.0    1.667    1.687  304.508  304.550
 sum_up_and_integrate               320  8.0    4.890    5.138  243.766  243.828
 integrate_v_rspace                 320  9.0    0.008    0.010  238.876  239.134
 fft3d_ps                          3545 11.9  145.675  152.570  233.023  237.647
 gspace_mixing                      315  5.0    1.616    1.638  231.730  231.730
 density_rs2pw                      325  7.0    0.025    0.028  192.259  216.526
 broyden_mixing                     315  6.0  168.989  169.604  170.338  170.608
 qs_scf_new_mos                     320  5.0    0.004    0.004  169.187  169.398
 eigensolver                        320  6.0    0.018    0.025  163.387  163.469
 grid_collocate_task_list           325  7.0  108.221  137.255  108.221  137.255
 qs_vxc_create                      320  8.0    0.009    0.012  124.079  126.997
 xc_vxc_pw_create                   320  9.0    6.725    7.841  124.070  126.987
 grid_integrate_task_list           320 10.0   99.616  125.890   99.616  125.890
 rs_pw_transfer                    2585  9.5    0.042    0.047   89.773  115.344
 potential_pw2rs                    320 10.0    0.172    0.211  112.714  112.962
 cp_fm_diag_elpa                    294  7.0    0.002    0.002  109.624  109.675
 cp_fm_diag_elpa_base               294  8.0  108.944  109.094  109.537  109.537
 xc_rho_set_and_dset_create         320 10.0    7.631    9.748   88.078   90.492
 mp_waitany                       27190 11.5   43.694   71.612   43.694   71.612
 rs_pw_transfer_RS2PW_150           330  9.0    8.174   10.309   42.139   66.970
 x_to_yz                           1920 13.2   39.915   41.337   55.470   58.127
 xc_functional_eval                 320 11.0    0.005    0.006   51.828   54.516
 pbe_lda_eval                       320 12.0   51.822   54.511   51.822   54.511
 cp_fm_triangular_multiply          960  7.0   53.112   53.324   53.112   53.324
 mp_alltoall_d11v                  4515  9.3   27.439   49.781   27.439   49.781
 rs_gather_matrices                 320 10.0    0.120    0.134   26.537   48.865
 xc_pw_derive                      1920 11.0    0.010    0.012   39.553   47.246
 pw_nn_compose_r                   1920 12.0   30.702   30.917   39.543   47.237
 yz_to_x                           1625 12.6   20.467   21.746   31.766   34.115
 pw_scatter_p                      1920 12.2   32.923   33.842   32.923   33.842
 mp_alltoall_z22v                  3545 13.9   26.853   32.030   26.853   32.030
 rs_pw_transfer_PW2RS_150           320 12.0   16.284   16.683   28.997   29.636
 xc_pw_divergence                   320 10.0    0.005    0.006   23.477   29.012
 pw_gather_p                       1625 11.6   24.715   26.459   24.715   26.459
 -------------------------------------------------------------------------------

 The number of warnings for this run is : 6
 
 -------------------------------------------------------------------------------
  **** **** ******  **  PROGRAM ENDED AT                 2025-10-22 13:09:00.794
 ***** ** ***  *** **   PROGRAM RAN ON                                sebnode123
 **    ****   ******    PROGRAM RAN BY                                    luehrs
 ***** **    ** ** **   PROGRAM PROCESS ID                                982508
  **** **  *******  **  PROGRAM STOPPED IN /home/luehrs/PhD/Sodium_batteries/Sod
                                           ium-graphene-edge/Zig_zag_3/No_hydrog
                                           en
