 DBCSR| Multiplication driver                                               XSMM
 DBCSR| Multrec recursion limit                                              512
 DBCSR| Multiplication stack size                                           1000
 DBCSR| Maximum elements for images                                    UNLIMITED
 DBCSR| Multiplicative factor virtual images                                   1
 DBCSR| Multiplication size stacks                                             3
 DBCSR| Number of 3D layers                                               SINGLE
 DBCSR| Use MPI memory allocation                                              T
 DBCSR| Use RMA algorithm                                                      F
 DBCSR| Use Communication thread                                               T
 DBCSR| Communication thread load                                             87


  **** **** ******  **  PROGRAM STARTED AT               2024-07-19 17:03:35.640
 ***** ** ***  *** **   PROGRAM STARTED ON                            sebnode132
 **    ****   ******    PROGRAM STARTED BY                                luehrs
 ***** **    ** ** **   PROGRAM PROCESS ID                                602252
  **** **  *******  **  PROGRAM STARTED IN /home/luehrs/PhD/Sodium_batteries/Sod
                                           ium-graphene-edge/Zig_zag_3/No_hydrog
                                           en

 CP2K| version string:                    CP2K version 7.0 (Development Version)
 CP2K| source code revision number:                                             
 CP2K| cp2kflags: libint fftw3 libxc parallel mpi3 scalapack xsmm libderiv_max_a
 CP2K|            m1=8 libint_max_am=9 max_contr=4
 CP2K| is freely available from                            https://www.cp2k.org/
 CP2K| Program compiled at                         Sun Jun 24 14:37:16 CEST 2018
 CP2K| Program compiled on                                            sebstorage
 CP2K| Program compiled for                                Linux-x86-64-gfortran
 CP2K| Data directory path    /home/brehm/Software_Batchnode/2018/Source/cp2k_18
 CP2K| Input file name                                         input.zig-zag.inp

 GLOBAL| Force Environment number                                              1
 GLOBAL| Basis set file name                                      ./BASIS_MOLOPT
 GLOBAL| Potential file name                                    ./GTH_POTENTIALS
 GLOBAL| MM Potential file name                                     MM_POTENTIAL
 GLOBAL| Coordinate file name           graphene_no_hydrogen_zig-zag_relaxed.xyz
 GLOBAL| Method name                                                        CP2K
 GLOBAL| Project name                                      graphene_zig_zag_BSSE
 GLOBAL| Preferred FFT library                                             FFTW3
 GLOBAL| Preferred diagonalization lib.                                       SL
 GLOBAL| Run type                                                           BSSE
 GLOBAL| All-to-all communication in single precision                          F
 GLOBAL| FFTs using library dependent lengths                                  F
 GLOBAL| Global print level                                                  LOW
 GLOBAL| Total number of message passing processes                            16
 GLOBAL| Number of threads for this process                                    1
 GLOBAL| This output is from process                                           0
 GLOBAL| CPU model name :  AMD EPYC 7513 32-Core Processor

 MEMORY| system memory details [Kb]
 MEMORY|                        rank 0           min           max       average
 MEMORY| MemTotal            131897348     131897348     131897348     131897348
 MEMORY| MemFree              33878644      33878644      33878644      33878644
 MEMORY| Buffers                111336        111336        111336        111336
 MEMORY| Cached               93909944      93909944      93909944      93909944
 MEMORY| Slab                  1230640       1230640       1230640       1230640
 MEMORY| SReclaimable           399720        399720        399720        399720
 MEMORY| MemLikelyFree       128299644     128299644     128299644     128299644


 GENERATE|  Preliminary Number of Bonds generated:                             0
 GENERATE|  Achieved consistency in connectivity generation.

 *******************************************************************************
 *******************************************************************************
 **                                                                           **
 **     #####                         ##              ##                      **
 **    ##   ##            ##          ##              ##                      **
 **   ##     ##                       ##            ######                    **
 **   ##     ##  ##   ##  ##   #####  ##  ##   ####   ##    #####    #####    **
 **   ##     ##  ##   ##  ##  ##      ## ##   ##      ##   ##   ##  ##   ##   **
 **   ##  ## ##  ##   ##  ##  ##      ####     ###    ##   ######   ######    **
 **    ##  ###   ##   ##  ##  ##      ## ##      ##   ##   ##       ##        **
 **     #######   #####   ##   #####  ##  ##  ####    ##    #####   ##        **
 **           ##                                                    ##        **
 **                                                                           **
 **                                                ... make the atoms dance   **
 **                                                                           **
 **            Copyright (C) by CP2K developers group (2000 - 2018)           **
 **                                                                           **
 *******************************************************************************


 TOTAL NUMBERS AND MAXIMUM NUMBERS

  Total number of            - Atomic kinds:                                   2
                             - Atoms:                                        113
                             - Shell sets:                                   113
                             - Shells:                                       565
                             - Primitive Cartesian functions:                567
                             - Cartesian basis functions:                   1577
                             - Spherical basis functions:                   1465

  Maximum angular momentum of- Orbital basis functions:                        2
                             - Local part of the GTH pseudopotential:          2
                             - Non-local part of the GTH pseudopotential:      1


 SCF PARAMETERS         Density guess:                                    ATOMIC
                        --------------------------------------------------------
                        max_scf:                                             400
                        max_scf_history:                                       0
                        max_diis:                                              4
                        --------------------------------------------------------
                        eps_scf:                                        3.00E-07
                        eps_scf_history:                                0.00E+00
                        eps_diis:                                       1.00E-01
                        eps_eigval:                                     1.00E-05
                        --------------------------------------------------------
                        level_shift [a.u.]:                                 0.00
                        added MOs                                       100  100
                        --------------------------------------------------------
                        Mixing method:                            BROYDEN_MIXING
                                                charge density mixing in g-space
                        --------------------------------------------------------
                        Smear method:                                FERMI_DIRAC
                        Electronic temperature [K]:                        300.0
                        Electronic temperature [a.u.]:                  9.50E-04
                        Accuracy threshold:                             1.00E-10
                        --------------------------------------------------------
                        Outer loop SCF in use 
                        No variables optimised in outer loop
                        eps_scf                                         1.00E-06
                        max_scf                                              100
                        DIIS optimization
                        DIIS buffer length                                     3
                        step_size                                       5.00E-01

 -------------------------------------------------------------------------------
 -                                                                             -
 -  BSSE CALCULATION         FRAGMENT CONF: 10        FRAGMENT SUBCONF: 10     -
 -                           CHARGE =     0           MULTIPLICITY =     0     -
 -                                                                             -
 -                 ATOM INDEX                              ATOM NAME           -
 -                 ----------                              ---------           -
 -                      1                                   C                  -
 -                      2                                   C                  -
 -                      3                                   C                  -
 -                      4                                   C                  -
 -                      5                                   C                  -
 -                      6                                   C                  -
 -                      7                                   C                  -
 -                      8                                   C                  -
 -                      9                                   C                  -
 -                     10                                   C                  -
 -                     11                                   C                  -
 -                     12                                   C                  -
 -                     13                                   C                  -
 -                     14                                   C                  -
 -                     15                                   C                  -
 -                     16                                   C                  -
 -                     17                                   C                  -
 -                     18                                   C                  -
 -                     19                                   C                  -
 -                     20                                   C                  -
 -                     21                                   C                  -
 -                     22                                   C                  -
 -                     23                                   C                  -
 -                     24                                   C                  -
 -                     25                                   C                  -
 -                     26                                   C                  -
 -                     27                                   C                  -
 -                     28                                   C                  -
 -                     29                                   C                  -
 -                     30                                   C                  -
 -                     31                                   C                  -
 -                     32                                   C                  -
 -                     33                                   C                  -
 -                     34                                   C                  -
 -                     35                                   C                  -
 -                     36                                   C                  -
 -                     37                                   C                  -
 -                     38                                   C                  -
 -                     39                                   C                  -
 -                     40                                   C                  -
 -                     41                                   C                  -
 -                     42                                   C                  -
 -                     43                                   C                  -
 -                     44                                   C                  -
 -                     45                                   C                  -
 -                     46                                   C                  -
 -                     47                                   C                  -
 -                     48                                   C                  -
 -                     49                                   C                  -
 -                     50                                   C                  -
 -                     51                                   C                  -
 -                     52                                   C                  -
 -                     53                                   C                  -
 -                     54                                   C                  -
 -                     55                                   C                  -
 -                     56                                   C                  -
 -                     57                                   C                  -
 -                     58                                   C                  -
 -                     59                                   C                  -
 -                     60                                   C                  -
 -                     61                                   C                  -
 -                     62                                   C                  -
 -                     63                                   C                  -
 -                     64                                   C                  -
 -                     65                                   C                  -
 -                     66                                   C                  -
 -                     67                                   C                  -
 -                     68                                   C                  -
 -                     69                                   C                  -
 -                     70                                   C                  -
 -                     71                                   C                  -
 -                     72                                   C                  -
 -                     73                                   C                  -
 -                     74                                   C                  -
 -                     75                                   C                  -
 -                     76                                   C                  -
 -                     77                                   C                  -
 -                     78                                   C                  -
 -                     79                                   C                  -
 -                     80                                   C                  -
 -                     81                                   C                  -
 -                     82                                   C                  -
 -                     83                                   C                  -
 -                     84                                   C                  -
 -                     85                                   C                  -
 -                     86                                   C                  -
 -                     87                                   C                  -
 -                     88                                   C                  -
 -                     89                                   C                  -
 -                     90                                   C                  -
 -                     91                                   C                  -
 -                     92                                   C                  -
 -                     93                                   C                  -
 -                     94                                   C                  -
 -                     95                                   C                  -
 -                     96                                   C                  -
 -                     97                                   C                  -
 -                     98                                   C                  -
 -                     99                                   C                  -
 -                    100                                   C                  -
 -                    101                                   C                  -
 -                    102                                   C                  -
 -                    103                                   C                  -
 -                    104                                   C                  -
 -                    105                                   C                  -
 -                    106                                   C                  -
 -                    107                                   C                  -
 -                    108                                   C                  -
 -                    109                                   C                  -
 -                    110                                   C                  -
 -                    111                                   C                  -
 -                    112                                   C                  -
 -------------------------------------------------------------------------------

 *******************************************************************************
 *******************************************************************************
 **                                                                           **
 **     #####                         ##              ##                      **
 **    ##   ##            ##          ##              ##                      **
 **   ##     ##                       ##            ######                    **
 **   ##     ##  ##   ##  ##   #####  ##  ##   ####   ##    #####    #####    **
 **   ##     ##  ##   ##  ##  ##      ## ##   ##      ##   ##   ##  ##   ##   **
 **   ##  ## ##  ##   ##  ##  ##      ####     ###    ##   ######   ######    **
 **    ##  ###   ##   ##  ##  ##      ## ##      ##   ##   ##       ##        **
 **     #######   #####   ##   #####  ##  ##  ####    ##    #####   ##        **
 **           ##                                                    ##        **
 **                                                                           **
 **                                                ... make the atoms dance   **
 **                                                                           **
 **            Copyright (C) by CP2K developers group (2000 - 2018)           **
 **                                                                           **
 *******************************************************************************


 TOTAL NUMBERS AND MAXIMUM NUMBERS

  Total number of            - Atomic kinds:                                   1
                             - Atoms:                                        112
                             - Shell sets:                                   112
                             - Shells:                                       560
                             - Primitive Cartesian functions:                560
                             - Cartesian basis functions:                   1568
                             - Spherical basis functions:                   1456

  Maximum angular momentum of- Orbital basis functions:                        2
                             - Local part of the GTH pseudopotential:          2
                             - Non-local part of the GTH pseudopotential:      0


 SCF PARAMETERS         Density guess:                                    ATOMIC
                        --------------------------------------------------------
                        max_scf:                                             400
                        max_scf_history:                                       0
                        max_diis:                                              4
                        --------------------------------------------------------
                        eps_scf:                                        3.00E-07
                        eps_scf_history:                                0.00E+00
                        eps_diis:                                       1.00E-01
                        eps_eigval:                                     1.00E-05
                        --------------------------------------------------------
                        level_shift [a.u.]:                                 0.00
                        added MOs                                       100  100
                        --------------------------------------------------------
                        Mixing method:                            BROYDEN_MIXING
                                                charge density mixing in g-space
                        --------------------------------------------------------
                        Smear method:                                FERMI_DIRAC
                        Electronic temperature [K]:                        300.0
                        Electronic temperature [a.u.]:                  9.50E-04
                        Accuracy threshold:                             1.00E-10
                        --------------------------------------------------------
                        Outer loop SCF in use 
                        No variables optimised in outer loop
                        eps_scf                                         1.00E-06
                        max_scf                                              100
                        DIIS optimization
                        DIIS buffer length                                     3
                        step_size                                       5.00E-01

 Spin 1

 Number of electrons:                                                        224
 Number of occupied orbitals:                                                224
 Number of molecular orbitals:                                               324

 Spin 2

 Number of electrons:                                                        224
 Number of occupied orbitals:                                                224
 Number of molecular orbitals:                                               324

 Number of orbital functions:                                               1456
 Number of independent orbital functions:                                   1456

 Extrapolation method: initial_guess


 SCF WAVEFUNCTION OPTIMIZATION

  Step     Update method      Time    Convergence         Total energy    Change
  ------------------------------------------------------------------------------
     1 NoMix/Diag. 0.10E+00    4.1     0.45131248      -627.8926975268 -6.28E+02
     2 Broy./Diag. 0.10E+00    7.6     0.08614265      -603.5106157260  2.44E+01
     3 Broy./Diag. 0.10E+00    7.9     0.13634700      -612.0300453973 -8.52E+00
     4 Broy./Diag. 0.10E+00    8.0     7.44361018      -625.7649932678 -1.37E+01
     5 Broy./Diag. 0.10E+00    8.1     7.44356965      -607.4243106701  1.83E+01
     6 Broy./Diag. 0.10E+00    8.3     0.42291860      -629.8082373170 -2.24E+01
     7 Broy./Diag. 0.10E+00    8.5     0.14390238      -630.8803955662 -1.07E+00
     8 Broy./Diag. 0.10E+00    8.7     7.60663438      -631.3389361823 -4.59E-01
     9 Broy./Diag. 0.10E+00    9.0     7.60663188      -586.2429948661  4.51E+01
    10 Broy./Diag. 0.10E+00    9.3     7.58840455      -631.4503849681 -4.52E+01
    11 Broy./Diag. 0.10E+00    9.3     7.58840246      -557.2568048718  7.42E+01
    12 Broy./Diag. 0.10E+00    9.3     7.61165022      -631.6120593913 -7.44E+01
    13 Broy./Diag. 0.10E+00    9.3     7.61164756      -562.0642590757  6.95E+01
    14 Broy./Diag. 0.10E+00    9.3     0.12007835      -631.7812572239 -6.97E+01
    15 Broy./Diag. 0.10E+00    9.3     0.09705707      -631.5648020688  2.16E-01
    16 Broy./Diag. 0.10E+00    9.4     7.55373619      -631.8936457163 -3.29E-01
    17 Broy./Diag. 0.10E+00    9.3     7.55432124      -587.0252361962  4.49E+01
    18 Broy./Diag. 0.10E+00    9.3     7.48428976      -631.8957623856 -4.49E+01
    19 Broy./Diag. 0.10E+00    9.3     7.48695070      -609.4014499715  2.25E+01
    20 Broy./Diag. 0.10E+00    9.3     7.64078905      -631.9228148027 -2.25E+01
    21 Broy./Diag. 0.10E+00    9.3     7.64078716      -608.7385759133  2.32E+01
    22 Broy./Diag. 0.10E+00    9.4     0.06071160      -631.8500471660 -2.31E+01
    23 Broy./Diag. 0.10E+00    9.3     0.00795001      -631.9536730078 -1.04E-01
    24 Broy./Diag. 0.10E+00    9.3     0.01451964      -631.9376307379  1.60E-02
    25 Broy./Diag. 0.10E+00    9.3     0.03831277      -631.9689232618 -3.13E-02
    26 Broy./Diag. 0.10E+00    9.3     0.01938434      -632.1560529912 -1.87E-01
    27 Broy./Diag. 0.10E+00    9.3     0.01029577      -632.2072774560 -5.12E-02
    28 Broy./Diag. 0.10E+00    9.3     0.00404850      -632.2358221191 -2.85E-02
    29 Broy./Diag. 0.10E+00    9.3     0.00715369      -632.2687236586 -3.29E-02
    30 Broy./Diag. 0.10E+00    9.3     0.02260982      -632.3355712484 -6.68E-02
    31 Broy./Diag. 0.10E+00    9.3     0.02161053      -632.3888278954 -5.33E-02
    32 Broy./Diag. 0.10E+00    9.3     0.00462616      -632.4159344771 -2.71E-02
    33 Broy./Diag. 0.10E+00    9.3     0.00810533      -632.4421404760 -2.62E-02
    34 Broy./Diag. 0.10E+00    9.3     0.01544639      -632.4580035829 -1.59E-02
    35 Broy./Diag. 0.10E+00    9.4     0.01433719      -632.4725864780 -1.46E-02
    36 Broy./Diag. 0.10E+00    9.3     0.00484156      -632.4715402726  1.05E-03
    37 Broy./Diag. 0.10E+00    9.4     0.00800380      -632.4817152887 -1.02E-02
    38 Broy./Diag. 0.10E+00    9.3     0.00297437      -632.4945949084 -1.29E-02
    39 Broy./Diag. 0.10E+00    9.3     0.00701611      -632.5013541230 -6.76E-03
    40 Broy./Diag. 0.10E+00    9.3     0.00763901      -632.5150224314 -1.37E-02
    41 Broy./Diag. 0.10E+00    9.3     0.00319509      -632.5157463421 -7.24E-04
    42 Broy./Diag. 0.10E+00    9.3     0.02406125      -632.5205924337 -4.85E-03
    43 Broy./Diag. 0.10E+00    9.4     0.01442825      -632.4979484597  2.26E-02
    44 Broy./Diag. 0.10E+00    9.3     0.02795923      -632.5178373782 -1.99E-02
    45 Broy./Diag. 0.10E+00    9.3     0.03372451      -632.4758730903  4.20E-02
    46 Broy./Diag. 0.10E+00    9.3     0.00402510      -632.5140414185 -3.82E-02
    47 Broy./Diag. 0.10E+00    9.3     0.00301678      -632.5170927887 -3.05E-03
    48 Broy./Diag. 0.10E+00    9.4     0.00535720      -632.5136989294  3.39E-03
    49 Broy./Diag. 0.10E+00    9.3     0.00457472      -632.5141798036 -4.81E-04
    50 Broy./Diag. 0.10E+00    9.4     0.00279850      -632.5125177844  1.66E-03
    51 Broy./Diag. 0.10E+00    9.4     0.00300055      -632.5157137395 -3.20E-03
    52 Broy./Diag. 0.10E+00    9.3     0.00340811      -632.5254000032 -9.69E-03
    53 Broy./Diag. 0.10E+00    9.3     0.00163175      -632.5264933170 -1.09E-03
    54 Broy./Diag. 0.10E+00    9.3     0.00126484      -632.5290564526 -2.56E-03
    55 Broy./Diag. 0.10E+00    9.4     0.00179323      -632.5341534341 -5.10E-03
    56 Broy./Diag. 0.10E+00    9.3     0.00183148      -632.5360028372 -1.85E-03
    57 Broy./Diag. 0.10E+00    9.3     0.00235400      -632.5388322086 -2.83E-03
    58 Broy./Diag. 0.10E+00    9.3     0.00139320      -632.5452717849 -6.44E-03
    59 Broy./Diag. 0.10E+00    9.3     0.00067276      -632.5510772670 -5.81E-03
    60 Broy./Diag. 0.10E+00    9.3     0.00078682      -632.5564475662 -5.37E-03
    61 Broy./Diag. 0.10E+00    9.2     0.00058002      -632.5592941059 -2.85E-03
    62 Broy./Diag. 0.10E+00    9.3     0.00085107      -632.5610841850 -1.79E-03
    63 Broy./Diag. 0.10E+00    9.2     0.00151276      -632.5630672845 -1.98E-03
    64 Broy./Diag. 0.10E+00    9.2     0.00053507      -632.5645719684 -1.50E-03
    65 Broy./Diag. 0.10E+00    9.2     0.00057061      -632.5650626978 -4.91E-04
    66 Broy./Diag. 0.10E+00    9.2     0.00060246      -632.5649373879  1.25E-04
    67 Broy./Diag. 0.10E+00    9.2     0.00041674      -632.5641707546  7.67E-04
    68 Broy./Diag. 0.10E+00    9.2     0.00077265      -632.5640893372  8.14E-05
    69 Broy./Diag. 0.10E+00    9.2     0.00034687      -632.5633150847  7.74E-04
    70 Broy./Diag. 0.10E+00    9.2     0.00019743      -632.5646420694 -1.33E-03
    71 Broy./Diag. 0.10E+00    9.2     0.00023094      -632.5648319019 -1.90E-04
    72 Broy./Diag. 0.10E+00    9.2     0.00034841      -632.5638846955  9.47E-04
    73 Broy./Diag. 0.10E+00    9.1     0.00024332      -632.5634324281  4.52E-04
    74 Broy./Diag. 0.10E+00    9.2     0.00020474      -632.5630267989  4.06E-04
    75 Broy./Diag. 0.10E+00    9.2     0.00005535      -632.5630161690  1.06E-05
    76 Broy./Diag. 0.10E+00    9.2     0.00009913      -632.5637334312 -7.17E-04
    77 Broy./Diag. 0.10E+00    9.1     0.00004121      -632.5648519925 -1.12E-03
    78 Broy./Diag. 0.10E+00    9.2     0.00014749      -632.5656725463 -8.21E-04
    79 Broy./Diag. 0.10E+00    9.2     0.00005037      -632.5670008071 -1.33E-03
    80 Broy./Diag. 0.10E+00    9.1     0.00003988      -632.5683899976 -1.39E-03
    81 Broy./Diag. 0.10E+00    9.1     0.00002645      -632.5685016488 -1.12E-04
    82 Broy./Diag. 0.10E+00    9.2     0.00008521      -632.5686391734 -1.38E-04
    83 Broy./Diag. 0.10E+00    9.3     0.00007155      -632.5690653583 -4.26E-04
    84 Broy./Diag. 0.10E+00    9.2     0.00004847      -632.5694782819 -4.13E-04
    85 Broy./Diag. 0.10E+00    9.2     0.00005768      -632.5696375883 -1.59E-04
    86 Broy./Diag. 0.10E+00    9.2     0.00003268      -632.5697333330 -9.57E-05
    87 Broy./Diag. 0.10E+00    9.2     0.00002136      -632.5697057421  2.76E-05
    88 Broy./Diag. 0.10E+00    9.2     0.00002164      -632.5695703173  1.35E-04
    89 Broy./Diag. 0.10E+00    9.2     0.00003977      -632.5694358783  1.34E-04
    90 Broy./Diag. 0.10E+00    9.2     0.00002398      -632.5693574742  7.84E-05
    91 Broy./Diag. 0.10E+00    9.3     0.00002714      -632.5693369596  2.05E-05
    92 Broy./Diag. 0.10E+00    9.2     0.00001789      -632.5693511026 -1.41E-05
    93 Broy./Diag. 0.10E+00    9.2     0.00001213      -632.5693371848  1.39E-05
    94 Broy./Diag. 0.10E+00    9.2     0.00001866      -632.5693239000  1.33E-05
    95 Broy./Diag. 0.10E+00    9.2     0.00001924      -632.5693316786 -7.78E-06
    96 Broy./Diag. 0.10E+00    9.2     0.00001375      -632.5693586155 -2.69E-05
    97 Broy./Diag. 0.10E+00    9.2     0.00000332      -632.5694077163 -4.91E-05
    98 Broy./Diag. 0.10E+00    9.2     0.00000724      -632.5694571971 -4.95E-05
    99 Broy./Diag. 0.10E+00    9.2     0.00000390      -632.5694930863 -3.59E-05
   100 Broy./Diag. 0.10E+00    9.2     0.00000578      -632.5695474516 -5.44E-05
   101 Broy./Diag. 0.10E+00    9.2     0.00000493      -632.5696241779 -7.67E-05
   102 Broy./Diag. 0.10E+00    9.2     0.00000816      -632.5696668899 -4.27E-05
   103 Broy./Diag. 0.10E+00    9.2     0.00000536      -632.5696858995 -1.90E-05
   104 Broy./Diag. 0.10E+00    9.2     0.00000436      -632.5696907407 -4.84E-06
   105 Broy./Diag. 0.10E+00    9.2     0.00000457      -632.5696889065  1.83E-06
   106 Broy./Diag. 0.10E+00    9.2     0.00000463      -632.5696976595 -8.75E-06
   107 Broy./Diag. 0.10E+00    9.2     0.00000287      -632.5697066821 -9.02E-06
   108 Broy./Diag. 0.10E+00    9.2     0.00000410      -632.5697127379 -6.06E-06
   109 Broy./Diag. 0.10E+00    9.2     0.00000408      -632.5697186167 -5.88E-06
   110 Broy./Diag. 0.10E+00    9.2     0.00000320      -632.5697277692 -9.15E-06
   111 Broy./Diag. 0.10E+00    9.2     0.00000288      -632.5697410069 -1.32E-05
   112 Broy./Diag. 0.10E+00    9.2     0.00000230      -632.5697500994 -9.09E-06
   113 Broy./Diag. 0.10E+00    9.2     0.00000204      -632.5697515465 -1.45E-06
   114 Broy./Diag. 0.10E+00    9.2     0.00000164      -632.5697580805 -6.53E-06
   115 Broy./Diag. 0.10E+00    9.2     0.00000178      -632.5697621653 -4.08E-06
   116 Broy./Diag. 0.10E+00    9.2     0.00000276      -632.5697638908 -1.73E-06
   117 Broy./Diag. 0.10E+00    9.2     0.00000380      -632.5697653621 -1.47E-06
   118 Broy./Diag. 0.10E+00    9.2     0.00000240      -632.5697672501 -1.89E-06
   119 Broy./Diag. 0.10E+00    9.2     0.00000303      -632.5697687686 -1.52E-06
   120 Broy./Diag. 0.10E+00    9.2     0.00000647      -632.5697680003  7.68E-07
   121 Broy./Diag. 0.10E+00    9.1     0.00000372      -632.5697664160  1.58E-06
   122 Broy./Diag. 0.10E+00    9.2     0.00000259      -632.5697644010  2.01E-06
   123 Broy./Diag. 0.10E+00    9.2     0.00000294      -632.5697624017  2.00E-06
   124 Broy./Diag. 0.10E+00    9.2     0.00000149      -632.5697603947  2.01E-06
   125 Broy./Diag. 0.10E+00    9.2     0.00000348      -632.5697593612  1.03E-06
   126 Broy./Diag. 0.10E+00    9.2     0.00000435      -632.5697569078  2.45E-06
   127 Broy./Diag. 0.10E+00    9.2     0.00000205      -632.5697552917  1.62E-06
   128 Broy./Diag. 0.10E+00    9.2     0.00000709      -632.5697551734  1.18E-07
   129 Broy./Diag. 0.10E+00    9.2     0.00000739      -632.5697551291  4.43E-08
   130 Broy./Diag. 0.10E+00    9.2     0.00000283      -632.5697538976  1.23E-06
   131 Broy./Diag. 0.10E+00    9.2     0.00000569      -632.5697533879  5.10E-07
   132 Broy./Diag. 0.10E+00    9.1     0.00000167      -632.5697522819  1.11E-06
   133 Broy./Diag. 0.10E+00    9.2     0.00000733      -632.5697508342  1.45E-06
   134 Broy./Diag. 0.10E+00    9.1     0.00000703      -632.5697507605  7.38E-08
   135 Broy./Diag. 0.10E+00    9.1     0.00000247      -632.5697508659 -1.05E-07
   136 Broy./Diag. 0.10E+00    9.2     0.00000211      -632.5697505700  2.96E-07
   137 Broy./Diag. 0.10E+00    9.2     0.00000136      -632.5697498981  6.72E-07
   138 Broy./Diag. 0.10E+00    9.2     0.00000452      -632.5697495361  3.62E-07
   139 Broy./Diag. 0.10E+00    9.2     0.00000264      -632.5697491703  3.66E-07
   140 Broy./Diag. 0.10E+00    9.1     0.00000354      -632.5697483238  8.46E-07
   141 Broy./Diag. 0.10E+00    9.1     0.00000208      -632.5697479919  3.32E-07
   142 Broy./Diag. 0.10E+00    9.1     0.00000102      -632.5697482802 -2.88E-07
   143 Broy./Diag. 0.10E+00    9.1     0.00000242      -632.5697483648 -8.46E-08
   144 Broy./Diag. 0.10E+00    9.1     0.00000280      -632.5697482991  6.57E-08
   145 Broy./Diag. 0.10E+00    9.1     0.00000139      -632.5697480439  2.55E-07
   146 Broy./Diag. 0.10E+00    9.1     0.00000181      -632.5697476101  4.34E-07
   147 Broy./Diag. 0.10E+00    9.1     0.00000219      -632.5697473277  2.82E-07
   148 Broy./Diag. 0.10E+00    9.0     0.00000137      -632.5697472589  6.88E-08
   149 Broy./Diag. 0.10E+00    9.0     0.00000196      -632.5697470964  1.62E-07
   150 Broy./Diag. 0.10E+00    9.0     0.00000224      -632.5697469916  1.05E-07
   151 Broy./Diag. 0.10E+00    9.1     0.00000419      -632.5697458647  1.13E-06
   152 Broy./Diag. 0.10E+00    9.1     0.00000153      -632.5697452998  5.65E-07
   153 Broy./Diag. 0.10E+00    9.0     0.00000119      -632.5697456857 -3.86E-07
   154 Broy./Diag. 0.10E+00    9.0     0.00000114      -632.5697452992  3.87E-07
   155 Broy./Diag. 0.10E+00    9.1     0.00000239      -632.5697452400  5.92E-08
   156 Broy./Diag. 0.10E+00    9.1     0.00000289      -632.5697442718  9.68E-07
   157 Broy./Diag. 0.10E+00    9.1     0.00000244      -632.5697441752  9.66E-08
   158 Broy./Diag. 0.10E+00    9.1     0.00000211      -632.5697438687  3.06E-07
   159 Broy./Diag. 0.10E+00    9.1     0.00000174      -632.5697437977  7.10E-08
   160 Broy./Diag. 0.10E+00    9.0     0.00000122      -632.5697442499 -4.52E-07
   161 Broy./Diag. 0.10E+00    9.0     0.00000975      -632.5697438575  3.92E-07
   162 Broy./Diag. 0.10E+00    9.0     0.00001012      -632.5697443436 -4.86E-07
   163 Broy./Diag. 0.10E+00    9.1     0.00000373      -632.5697434008  9.43E-07
   164 Broy./Diag. 0.10E+00    9.1     0.00000266      -632.5697436209 -2.20E-07
   165 Broy./Diag. 0.10E+00    9.0     0.00000375      -632.5697433689  2.52E-07
   166 Broy./Diag. 0.10E+00    9.1     0.00000197      -632.5697436122 -2.43E-07
   167 Broy./Diag. 0.10E+00    9.0     0.00000175      -632.5697435629  4.92E-08
   168 Broy./Diag. 0.10E+00    9.0     0.00000231      -632.5697437218 -1.59E-07
   169 Broy./Diag. 0.10E+00    9.0     0.00000148      -632.5697438739 -1.52E-07
   170 Broy./Diag. 0.10E+00    9.1     0.00000117      -632.5697437813  9.26E-08
   171 Broy./Diag. 0.10E+00    9.1     0.00000169      -632.5697436338  1.48E-07
   172 Broy./Diag. 0.10E+00    9.0     0.00000232      -632.5697437305 -9.67E-08
   173 Broy./Diag. 0.10E+00    9.0     0.00000068      -632.5697435107  2.20E-07
   174 Broy./Diag. 0.10E+00    9.0     0.00000101      -632.5697433371  1.74E-07
   175 Broy./Diag. 0.10E+00    9.0     0.00000097      -632.5697432786  5.85E-08
   176 Broy./Diag. 0.10E+00    9.0     0.00000222      -632.5697432833 -4.70E-09
   177 Broy./Diag. 0.10E+00    9.0     0.00000081      -632.5697430611  2.22E-07
   178 Broy./Diag. 0.10E+00    9.0     0.00000070      -632.5697432070 -1.46E-07
   179 Broy./Diag. 0.10E+00    9.1     0.00000076      -632.5697428812  3.26E-07
   180 Broy./Diag. 0.10E+00    9.1     0.00000132      -632.5697427963  8.49E-08
   181 Broy./Diag. 0.10E+00    9.0     0.00000153      -632.5697427165  7.98E-08
   182 Broy./Diag. 0.10E+00    9.0     0.00000254      -632.5697424919  2.25E-07
   183 Broy./Diag. 0.10E+00    9.0     0.00000129      -632.5697425764 -8.45E-08
   184 Broy./Diag. 0.10E+00    9.0     0.00000256      -632.5697424353  1.41E-07
   185 Broy./Diag. 0.10E+00    9.1     0.00000077      -632.5697422897  1.46E-07
   186 Broy./Diag. 0.10E+00    9.1     0.00000117      -632.5697422901 -4.61E-10
   187 Broy./Diag. 0.10E+00    9.1     0.00000120      -632.5697423706 -8.05E-08
   188 Broy./Diag. 0.10E+00    9.0     0.00000102      -632.5697424201 -4.95E-08
   189 Broy./Diag. 0.10E+00    9.0     0.00000091      -632.5697425142 -9.41E-08
   190 Broy./Diag. 0.10E+00    9.0     0.00000256      -632.5697425228 -8.60E-09
   191 Broy./Diag. 0.10E+00    9.0     0.00000123      -632.5697424332  8.97E-08
   192 Broy./Diag. 0.10E+00    9.1     0.00000052      -632.5697424910 -5.79E-08
   193 Broy./Diag. 0.10E+00    9.0     0.00000142      -632.5697425209 -2.98E-08
   194 Broy./Diag. 0.10E+00    9.1     0.00000170      -632.5697424905  3.04E-08
   195 Broy./Diag. 0.10E+00    9.0     0.00000060      -632.5697424735  1.70E-08
   196 Broy./Diag. 0.10E+00    9.0     0.00000057      -632.5697423446  1.29E-07
   197 Broy./Diag. 0.10E+00    9.0     0.00000068      -632.5697423440  5.58E-10
   198 Broy./Diag. 0.10E+00    9.0     0.00000107      -632.5697423199  2.41E-08
   199 Broy./Diag. 0.10E+00    9.0     0.00000104      -632.5697424102 -9.04E-08
   200 Broy./Diag. 0.10E+00    9.1     0.00000216      -632.5697423669  4.33E-08
   201 Broy./Diag. 0.10E+00    9.0     0.00000158      -632.5697425895 -2.23E-07
   202 Broy./Diag. 0.10E+00    9.0     0.00000106      -632.5697425221  6.75E-08
   203 Broy./Diag. 0.10E+00    9.0     0.00000252      -632.5697426058 -8.37E-08
   204 Broy./Diag. 0.10E+00    9.0     0.00000209      -632.5697423656  2.40E-07
   205 Broy./Diag. 0.10E+00    9.0     0.00000044      -632.5697425703 -2.05E-07
   206 Broy./Diag. 0.10E+00    9.0     0.00000092      -632.5697424943  7.60E-08
   207 Broy./Diag. 0.10E+00    9.0     0.00000063      -632.5697424591  3.52E-08
   208 Broy./Diag. 0.10E+00    9.0     0.00000063      -632.5697422402  2.19E-07
   209 Broy./Diag. 0.10E+00    9.0     0.00000099      -632.5697421949  4.52E-08
   210 Broy./Diag. 0.10E+00    9.0     0.00000086      -632.5697422314 -3.64E-08
   211 Broy./Diag. 0.10E+00    9.0     0.00000012      -632.5697421581  7.33E-08

  *** SCF run converged in   211 steps ***


  Electronic density on regular grids:       -447.9999999999        0.0000000001
  Core density on regular grids:              447.9999999996       -0.0000000004
  Total charge density on r-space grids:       -0.0000000003
  Total charge density g-space grids:          -0.0000000003

  Overlap energy of the core charge distribution:               0.00001865557362
  Self energy of the core charge distribution:              -1493.52088779770361
  Core Hamiltonian energy:                                    466.88890527876265
  Hartree energy:                                             585.25214309514786
  Exchange-correlation energy:                               -190.96253003129698
  Dispersion energy:                                           -0.22075422073812
  Electronic entropic energy:                                  -0.00663713769036
  Fermi energy:                                                -0.14641544162895

  Total energy:                                              -632.56974215809259

  outer SCF iter =    1 RMS gradient =   0.12E-06 energy =       -632.5697421581
  outer SCF loop converged in   1 iterations or  211 steps


  Integrated absolute spin density  :                               0.0001185242
  WARNING: S**2 computation does not yet treat fractional occupied orbitals

 *** WARNING in qs_loc_utils.F:1387 :: User requested the calculation of ***
 *** the localized wavefunction but the section LOCALIZE was not         ***
 *** specified. Localization will not be performed!                      ***


 -------------------------------------------------------------------------------
 -                                                                             -
 -  BSSE CALCULATION         FRAGMENT CONF: 01        FRAGMENT SUBCONF: 01     -
 -                           CHARGE =     0           MULTIPLICITY =     0     -
 -                                                                             -
 -                 ATOM INDEX                              ATOM NAME           -
 -                 ----------                              ---------           -
 -                    113                                   Na                 -
 -------------------------------------------------------------------------------

 *******************************************************************************
 *******************************************************************************
 **                                                                           **
 **     #####                         ##              ##                      **
 **    ##   ##            ##          ##              ##                      **
 **   ##     ##                       ##            ######                    **
 **   ##     ##  ##   ##  ##   #####  ##  ##   ####   ##    #####    #####    **
 **   ##     ##  ##   ##  ##  ##      ## ##   ##      ##   ##   ##  ##   ##   **
 **   ##  ## ##  ##   ##  ##  ##      ####     ###    ##   ######   ######    **
 **    ##  ###   ##   ##  ##  ##      ## ##      ##   ##   ##       ##        **
 **     #######   #####   ##   #####  ##  ##  ####    ##    #####   ##        **
 **           ##                                                    ##        **
 **                                                                           **
 **                                                ... make the atoms dance   **
 **                                                                           **
 **            Copyright (C) by CP2K developers group (2000 - 2018)           **
 **                                                                           **
 *******************************************************************************

 *** WARNING in qs_environment.F:1128 :: More added MOs requested for beta ***
 *** spin than available.                                                  ***


 *** WARNING in qs_environment.F:1142 :: More added MOs requested than ***
 *** available. The full set of unoccupied MOs will be used.           ***



 TOTAL NUMBERS AND MAXIMUM NUMBERS

  Total number of            - Atomic kinds:                                   1
                             - Atoms:                                          1
                             - Shell sets:                                     1
                             - Shells:                                         5
                             - Primitive Cartesian functions:                  7
                             - Cartesian basis functions:                      9
                             - Spherical basis functions:                      9

  Maximum angular momentum of- Orbital basis functions:                        1
                             - Local part of the GTH pseudopotential:          2
                             - Non-local part of the GTH pseudopotential:      1


 SCF PARAMETERS         Density guess:                                    ATOMIC
                        --------------------------------------------------------
                        max_scf:                                             400
                        max_scf_history:                                       0
                        max_diis:                                              4
                        --------------------------------------------------------
                        eps_scf:                                        3.00E-07
                        eps_scf_history:                                0.00E+00
                        eps_diis:                                       1.00E-01
                        eps_eigval:                                     1.00E-05
                        --------------------------------------------------------
                        level_shift [a.u.]:                                 0.00
                        added MOs                                         4    5
                        --------------------------------------------------------
                        Mixing method:                            BROYDEN_MIXING
                                                charge density mixing in g-space
                        --------------------------------------------------------
                        Smear method:                                FERMI_DIRAC
                        Electronic temperature [K]:                        300.0
                        Electronic temperature [a.u.]:                  9.50E-04
                        Accuracy threshold:                             1.00E-10
                        --------------------------------------------------------
                        Outer loop SCF in use 
                        No variables optimised in outer loop
                        eps_scf                                         1.00E-06
                        max_scf                                              100
                        DIIS optimization
                        DIIS buffer length                                     3
                        step_size                                       5.00E-01

 Spin 1

 Number of electrons:                                                          5
 Number of occupied orbitals:                                                  5
 Number of molecular orbitals:                                                 9

 Spin 2

 Number of electrons:                                                          4
 Number of occupied orbitals:                                                  4
 Number of molecular orbitals:                                                 9

 Number of orbital functions:                                                  9
 Number of independent orbital functions:                                      9

 Extrapolation method: initial_guess


 SCF WAVEFUNCTION OPTIMIZATION

  Step     Update method      Time    Convergence         Total energy    Change
  ------------------------------------------------------------------------------
     1 NoMix/Diag. 0.10E+00    2.5     0.36438690       -47.1649297304 -4.72E+01
     2 Broy./Diag. 0.10E+00    5.3     0.01268283       -47.1381991150  2.67E-02
     3 Broy./Diag. 0.10E+00    5.6     0.06965571       -47.1613221186 -2.31E-02
     4 Broy./Diag. 0.10E+00    5.7     0.00105504       -47.1451610031  1.62E-02
     5 Broy./Diag. 0.10E+00    5.9     0.00349279       -47.1558531743 -1.07E-02
     6 Broy./Diag. 0.10E+00    6.0     0.00090825       -47.1499804881  5.87E-03
     7 Broy./Diag. 0.10E+00    6.2     0.01190319       -47.1534103800 -3.43E-03
     8 Broy./Diag. 0.10E+00    6.5     0.00141845       -47.1587473944 -5.34E-03
     9 Broy./Diag. 0.10E+00    6.7     0.00645127       -47.1553921742  3.36E-03
    10 Broy./Diag. 0.10E+00    6.9     0.00099538       -47.1615941569 -6.20E-03
    11 Broy./Diag. 0.10E+00    7.1     0.00163605       -47.1592255199  2.37E-03
    12 Broy./Diag. 0.10E+00    7.0     0.00119922       -47.1664684666 -7.24E-03
    13 Broy./Diag. 0.10E+00    7.0     0.00106765       -47.1643353303  2.13E-03
    14 Broy./Diag. 0.10E+00    6.9     0.00099462       -47.1606268704  3.71E-03
    15 Broy./Diag. 0.10E+00    6.9     0.00050533       -47.1579715532  2.66E-03
    16 Broy./Diag. 0.10E+00    6.9     0.00051417       -47.1611197351 -3.15E-03
    17 Broy./Diag. 0.10E+00    6.9     0.00041737       -47.1609173234  2.02E-04
    18 Broy./Diag. 0.10E+00    6.9     0.00013593       -47.1611292955 -2.12E-04
    19 Broy./Diag. 0.10E+00    7.0     0.00040158       -47.1582498623  2.88E-03
    20 Broy./Diag. 0.10E+00    6.9     0.00003205       -47.1570295597  1.22E-03
    21 Broy./Diag. 0.10E+00    7.0     0.00018880       -47.1600255399 -3.00E-03
    22 Broy./Diag. 0.10E+00    7.0     0.00015350       -47.1578206071  2.20E-03
    23 Broy./Diag. 0.10E+00    6.9     0.00029335       -47.1544172595  3.40E-03
    24 Broy./Diag. 0.10E+00    7.0     0.00031767       -47.1549286077 -5.11E-04
    25 Broy./Diag. 0.10E+00    7.0     0.00014537       -47.1560240084 -1.10E-03
    26 Broy./Diag. 0.10E+00    6.9     0.00009150       -47.1547664410  1.26E-03
    27 Broy./Diag. 0.10E+00    6.9     0.00002203       -47.1544603834  3.06E-04
    28 Broy./Diag. 0.10E+00    7.0     0.00016962       -47.1565339646 -2.07E-03
    29 Broy./Diag. 0.10E+00    7.0     0.00002975       -47.1564862185  4.77E-05
    30 Broy./Diag. 0.10E+00    7.0     0.00004375       -47.1561567350  3.29E-04
    31 Broy./Diag. 0.10E+00    7.0     0.00006824       -47.1562903942 -1.34E-04
    32 Broy./Diag. 0.10E+00    7.0     0.00017399       -47.1567137048 -4.23E-04
    33 Broy./Diag. 0.10E+00    6.9     0.00042743       -47.1565096238  2.04E-04
    34 Broy./Diag. 0.10E+00    6.9     0.00017836       -47.1559391950  5.70E-04
    35 Broy./Diag. 0.10E+00    7.0     0.00008114       -47.1562695678 -3.30E-04
    36 Broy./Diag. 0.10E+00    6.9     0.00004599       -47.1562352239  3.43E-05
    37 Broy./Diag. 0.10E+00    7.0     0.00012278       -47.1558713011  3.64E-04
    38 Broy./Diag. 0.10E+00    7.0     0.00003229       -47.1558747616 -3.46E-06
    39 Broy./Diag. 0.10E+00    7.0     0.00003399       -47.1559815318 -1.07E-04
    40 Broy./Diag. 0.10E+00    7.0     0.00002742       -47.1553574840  6.24E-04
    41 Broy./Diag. 0.10E+00    6.9     0.00002371       -47.1554508153 -9.33E-05
    42 Broy./Diag. 0.10E+00    6.9     0.00002074       -47.1558271945 -3.76E-04
    43 Broy./Diag. 0.10E+00    7.0     0.00003266       -47.1556057535  2.21E-04
    44 Broy./Diag. 0.10E+00    7.0     0.00004199       -47.1554307243  1.75E-04
    45 Broy./Diag. 0.10E+00    7.0     0.00002616       -47.1554000928  3.06E-05
    46 Broy./Diag. 0.10E+00    6.9     0.00001825       -47.1555616200 -1.62E-04
    47 Broy./Diag. 0.10E+00    7.0     0.00000656       -47.1556607913 -9.92E-05
    48 Broy./Diag. 0.10E+00    6.9     0.00001070       -47.1557208179 -6.00E-05
    49 Broy./Diag. 0.10E+00    7.0     0.00000488       -47.1557256296 -4.81E-06
    50 Broy./Diag. 0.10E+00    6.9     0.00001127       -47.1556679981  5.76E-05
    51 Broy./Diag. 0.10E+00    6.9     0.00002041       -47.1556776438 -9.65E-06
    52 Broy./Diag. 0.10E+00    6.9     0.00003184       -47.1556975458 -1.99E-05
    53 Broy./Diag. 0.10E+00    7.0     0.00003983       -47.1556659279  3.16E-05
    54 Broy./Diag. 0.10E+00    6.9     0.00000950       -47.1556689210 -2.99E-06
    55 Broy./Diag. 0.10E+00    7.0     0.00001589       -47.1556581126  1.08E-05
    56 Broy./Diag. 0.10E+00    7.0     0.00003620       -47.1556508709  7.24E-06
    57 Broy./Diag. 0.10E+00    6.9     0.00002574       -47.1555532176  9.77E-05
    58 Broy./Diag. 0.10E+00    7.0     0.00001339       -47.1555655761 -1.24E-05
    59 Broy./Diag. 0.10E+00    7.0     0.00002102       -47.1555640486  1.53E-06
    60 Broy./Diag. 0.10E+00    7.0     0.00001972       -47.1555242779  3.98E-05
    61 Broy./Diag. 0.10E+00    6.9     0.00001469       -47.1555259369 -1.66E-06
    62 Broy./Diag. 0.10E+00    6.9     0.00000957       -47.1554473254  7.86E-05
    63 Broy./Diag. 0.10E+00    6.9     0.00000929       -47.1554099012  3.74E-05
    64 Broy./Diag. 0.10E+00    7.0     0.00001742       -47.1554290782 -1.92E-05
    65 Broy./Diag. 0.10E+00    7.0     0.00000874       -47.1554629161 -3.38E-05
    66 Broy./Diag. 0.10E+00    6.9     0.00000459       -47.1554641397 -1.22E-06
    67 Broy./Diag. 0.10E+00    7.0     0.00000973       -47.1554791534 -1.50E-05
    68 Broy./Diag. 0.10E+00    6.9     0.00001500       -47.1554895716 -1.04E-05
    69 Broy./Diag. 0.10E+00    6.9     0.00001087       -47.1556113121 -1.22E-04
    70 Broy./Diag. 0.10E+00    6.9     0.00001746       -47.1558087296 -1.97E-04
    71 Broy./Diag. 0.10E+00    6.9     0.00000614       -47.1559341132 -1.25E-04
    72 Broy./Diag. 0.10E+00    6.9     0.00000462       -47.1560061864 -7.21E-05
    73 Broy./Diag. 0.10E+00    6.9     0.00001302       -47.1559139344  9.23E-05
    74 Broy./Diag. 0.10E+00    6.9     0.00000643       -47.1557591020  1.55E-04
    75 Broy./Diag. 0.10E+00    7.0     0.00000716       -47.1555973385  1.62E-04
    76 Broy./Diag. 0.10E+00    7.0     0.00000392       -47.1555583989  3.89E-05
    77 Broy./Diag. 0.10E+00    7.0     0.00000749       -47.1555193867  3.90E-05
    78 Broy./Diag. 0.10E+00    6.9     0.00000600       -47.1555157931  3.59E-06
    79 Broy./Diag. 0.10E+00    6.9     0.00000759       -47.1555065549  9.24E-06
    80 Broy./Diag. 0.10E+00    7.0     0.00001115       -47.1555563191 -4.98E-05
    81 Broy./Diag. 0.10E+00    6.9     0.00000968       -47.1555344534  2.19E-05
    82 Broy./Diag. 0.10E+00    7.0     0.00000533       -47.1555122256  2.22E-05
    83 Broy./Diag. 0.10E+00    7.0     0.00000245       -47.1555101921  2.03E-06
    84 Broy./Diag. 0.10E+00    7.1     0.00000573       -47.1555243447 -1.42E-05
    85 Broy./Diag. 0.10E+00    7.1     0.00000066       -47.1555255453 -1.20E-06
    86 Broy./Diag. 0.10E+00    7.0     0.00000227       -47.1555265095 -9.64E-07
    87 Broy./Diag. 0.10E+00    7.0     0.00000164       -47.1555294912 -2.98E-06
    88 Broy./Diag. 0.10E+00    7.0     0.00000116       -47.1555298753 -3.84E-07
    89 Broy./Diag. 0.10E+00    7.0     0.00000134       -47.1555314001 -1.52E-06
    90 Broy./Diag. 0.10E+00    7.0     0.00000077       -47.1555295149  1.89E-06
    91 Broy./Diag. 0.10E+00    7.0     0.00000075       -47.1555281948  1.32E-06
    92 Broy./Diag. 0.10E+00    7.0     0.00000079       -47.1555277400  4.55E-07
    93 Broy./Diag. 0.10E+00    7.1     0.00000147       -47.1555262406  1.50E-06
    94 Broy./Diag. 0.10E+00    7.0     0.00000149       -47.1555287140 -2.47E-06
    95 Broy./Diag. 0.10E+00    7.0     0.00000044       -47.1555317339 -3.02E-06
    96 Broy./Diag. 0.10E+00    7.0     0.00000188       -47.1555306832  1.05E-06
    97 Broy./Diag. 0.10E+00    7.0     0.00000284       -47.1555230844  7.60E-06
    98 Broy./Diag. 0.10E+00    7.0     0.00000765       -47.1555299204 -6.84E-06
    99 Broy./Diag. 0.10E+00    7.0     0.00000301       -47.1555022166  2.77E-05
   100 Broy./Diag. 0.10E+00    7.0     0.00000198       -47.1554936913  8.53E-06
   101 Broy./Diag. 0.10E+00    7.0     0.00000086       -47.1554861733  7.52E-06
   102 Broy./Diag. 0.10E+00    7.0     0.00000359       -47.1554889489 -2.78E-06
   103 Broy./Diag. 0.10E+00    7.0     0.00000182       -47.1555039956 -1.50E-05
   104 Broy./Diag. 0.10E+00    7.0     0.00000122       -47.1554956831  8.31E-06
   105 Broy./Diag. 0.10E+00    7.0     0.00000385       -47.1554933256  2.36E-06
   106 Broy./Diag. 0.10E+00    6.9     0.00000079       -47.1555065284 -1.32E-05
   107 Broy./Diag. 0.10E+00    7.0     0.00000166       -47.1555052414  1.29E-06
   108 Broy./Diag. 0.10E+00    7.0     0.00000241       -47.1554950701  1.02E-05
   109 Broy./Diag. 0.10E+00    7.0     0.00000078       -47.1555024901 -7.42E-06
   110 Broy./Diag. 0.10E+00    7.0     0.00000246       -47.1555088692 -6.38E-06
   111 Broy./Diag. 0.10E+00    7.0     0.00000094       -47.1554954685  1.34E-05
   112 Broy./Diag. 0.10E+00    7.0     0.00000104       -47.1554939308  1.54E-06
   113 Broy./Diag. 0.10E+00    7.0     0.00000348       -47.1554965574 -2.63E-06
   114 Broy./Diag. 0.10E+00    7.0     0.00000241       -47.1555067894 -1.02E-05
   115 Broy./Diag. 0.10E+00    7.0     0.00000094       -47.1554981337  8.66E-06
   116 Broy./Diag. 0.10E+00    7.0     0.00000106       -47.1554976431  4.91E-07
   117 Broy./Diag. 0.10E+00    7.0     0.00000035       -47.1554910011  6.64E-06
   118 Broy./Diag. 0.10E+00    7.0     0.00000046       -47.1554895012  1.50E-06
   119 Broy./Diag. 0.10E+00    7.0     0.00000518       -47.1554935918 -4.09E-06
   120 Broy./Diag. 0.10E+00    7.0     0.00000122       -47.1555141152 -2.05E-05
   121 Broy./Diag. 0.10E+00    7.0     0.00000136       -47.1555151359 -1.02E-06
   122 Broy./Diag. 0.10E+00    6.9     0.00000106       -47.1555124120  2.72E-06
   123 Broy./Diag. 0.10E+00    7.0     0.00000045       -47.1555111704  1.24E-06
   124 Broy./Diag. 0.10E+00    7.0     0.00000019       -47.1555130463 -1.88E-06

  *** SCF run converged in   124 steps ***


  Electronic density on regular grids:         -8.9999571280        0.0000428720
  Core density on regular grids:                9.0000000000       -0.0000000000
  Total charge density on r-space grids:        0.0000428720
  Total charge density g-space grids:           0.0000428720

  Overlap energy of the core charge distribution:               0.00000000000000
  Self energy of the core charge distribution:                -96.60649019442629
  Core Hamiltonian energy:                                     29.74639272815263
  Hartree energy:                                              26.74991717180644
  Exchange-correlation energy:                                 -7.04533144584073
  Dispersion energy:                                           -0.00000130538029
  Electronic entropic energy:                                  -0.00000000059098
  Fermi energy:                                                -0.08376078522901

  Total energy:                                               -47.15551304628829

  outer SCF iter =    1 RMS gradient =   0.19E-06 energy =        -47.1555130463
  outer SCF loop converged in   1 iterations or  124 steps


  Integrated absolute spin density  :                               1.0000143402
  WARNING: S**2 computation does not yet treat fractional occupied orbitals

 *** WARNING in qs_loc_utils.F:1387 :: User requested the calculation of ***
 *** the localized wavefunction but the section LOCALIZE was not         ***
 *** specified. Localization will not be performed!                      ***


 -------------------------------------------------------------------------------
 -                                                                             -
 -  BSSE CALCULATION         FRAGMENT CONF: 11        FRAGMENT SUBCONF: 10     -
 -                           CHARGE =     0           MULTIPLICITY =     0     -
 -                                                                             -
 -                 ATOM INDEX                              ATOM NAME           -
 -                 ----------                              ---------           -
 -                      1                                   C                  -
 -                      2                                   C                  -
 -                      3                                   C                  -
 -                      4                                   C                  -
 -                      5                                   C                  -
 -                      6                                   C                  -
 -                      7                                   C                  -
 -                      8                                   C                  -
 -                      9                                   C                  -
 -                     10                                   C                  -
 -                     11                                   C                  -
 -                     12                                   C                  -
 -                     13                                   C                  -
 -                     14                                   C                  -
 -                     15                                   C                  -
 -                     16                                   C                  -
 -                     17                                   C                  -
 -                     18                                   C                  -
 -                     19                                   C                  -
 -                     20                                   C                  -
 -                     21                                   C                  -
 -                     22                                   C                  -
 -                     23                                   C                  -
 -                     24                                   C                  -
 -                     25                                   C                  -
 -                     26                                   C                  -
 -                     27                                   C                  -
 -                     28                                   C                  -
 -                     29                                   C                  -
 -                     30                                   C                  -
 -                     31                                   C                  -
 -                     32                                   C                  -
 -                     33                                   C                  -
 -                     34                                   C                  -
 -                     35                                   C                  -
 -                     36                                   C                  -
 -                     37                                   C                  -
 -                     38                                   C                  -
 -                     39                                   C                  -
 -                     40                                   C                  -
 -                     41                                   C                  -
 -                     42                                   C                  -
 -                     43                                   C                  -
 -                     44                                   C                  -
 -                     45                                   C                  -
 -                     46                                   C                  -
 -                     47                                   C                  -
 -                     48                                   C                  -
 -                     49                                   C                  -
 -                     50                                   C                  -
 -                     51                                   C                  -
 -                     52                                   C                  -
 -                     53                                   C                  -
 -                     54                                   C                  -
 -                     55                                   C                  -
 -                     56                                   C                  -
 -                     57                                   C                  -
 -                     58                                   C                  -
 -                     59                                   C                  -
 -                     60                                   C                  -
 -                     61                                   C                  -
 -                     62                                   C                  -
 -                     63                                   C                  -
 -                     64                                   C                  -
 -                     65                                   C                  -
 -                     66                                   C                  -
 -                     67                                   C                  -
 -                     68                                   C                  -
 -                     69                                   C                  -
 -                     70                                   C                  -
 -                     71                                   C                  -
 -                     72                                   C                  -
 -                     73                                   C                  -
 -                     74                                   C                  -
 -                     75                                   C                  -
 -                     76                                   C                  -
 -                     77                                   C                  -
 -                     78                                   C                  -
 -                     79                                   C                  -
 -                     80                                   C                  -
 -                     81                                   C                  -
 -                     82                                   C                  -
 -                     83                                   C                  -
 -                     84                                   C                  -
 -                     85                                   C                  -
 -                     86                                   C                  -
 -                     87                                   C                  -
 -                     88                                   C                  -
 -                     89                                   C                  -
 -                     90                                   C                  -
 -                     91                                   C                  -
 -                     92                                   C                  -
 -                     93                                   C                  -
 -                     94                                   C                  -
 -                     95                                   C                  -
 -                     96                                   C                  -
 -                     97                                   C                  -
 -                     98                                   C                  -
 -                     99                                   C                  -
 -                    100                                   C                  -
 -                    101                                   C                  -
 -                    102                                   C                  -
 -                    103                                   C                  -
 -                    104                                   C                  -
 -                    105                                   C                  -
 -                    106                                   C                  -
 -                    107                                   C                  -
 -                    108                                   C                  -
 -                    109                                   C                  -
 -                    110                                   C                  -
 -                    111                                   C                  -
 -                    112                                   C                  -
 -                    113                                   Na_ghost           -
 -------------------------------------------------------------------------------

 *******************************************************************************
 *******************************************************************************
 **                                                                           **
 **     #####                         ##              ##                      **
 **    ##   ##            ##          ##              ##                      **
 **   ##     ##                       ##            ######                    **
 **   ##     ##  ##   ##  ##   #####  ##  ##   ####   ##    #####    #####    **
 **   ##     ##  ##   ##  ##  ##      ## ##   ##      ##   ##   ##  ##   ##   **
 **   ##  ## ##  ##   ##  ##  ##      ####     ###    ##   ######   ######    **
 **    ##  ###   ##   ##  ##  ##      ## ##      ##   ##   ##       ##        **
 **     #######   #####   ##   #####  ##  ##  ####    ##    #####   ##        **
 **           ##                                                    ##        **
 **                                                                           **
 **                                                ... make the atoms dance   **
 **                                                                           **
 **            Copyright (C) by CP2K developers group (2000 - 2018)           **
 **                                                                           **
 *******************************************************************************


 TOTAL NUMBERS AND MAXIMUM NUMBERS

  Total number of            - Atomic kinds:                                   2
                             - Atoms:                                        113
                             - Shell sets:                                   113
                             - Shells:                                       565
                             - Primitive Cartesian functions:                567
                             - Cartesian basis functions:                   1577
                             - Spherical basis functions:                   1465

  Maximum angular momentum of- Orbital basis functions:                        2
                             - Local part of the GTH pseudopotential:          2
                             - Non-local part of the GTH pseudopotential:      0


 SCF PARAMETERS         Density guess:                                    ATOMIC
                        --------------------------------------------------------
                        max_scf:                                             400
                        max_scf_history:                                       0
                        max_diis:                                              4
                        --------------------------------------------------------
                        eps_scf:                                        3.00E-07
                        eps_scf_history:                                0.00E+00
                        eps_diis:                                       1.00E-01
                        eps_eigval:                                     1.00E-05
                        --------------------------------------------------------
                        level_shift [a.u.]:                                 0.00
                        added MOs                                       100  100
                        --------------------------------------------------------
                        Mixing method:                            BROYDEN_MIXING
                                                charge density mixing in g-space
                        --------------------------------------------------------
                        Smear method:                                FERMI_DIRAC
                        Electronic temperature [K]:                        300.0
                        Electronic temperature [a.u.]:                  9.50E-04
                        Accuracy threshold:                             1.00E-10
                        --------------------------------------------------------
                        Outer loop SCF in use 
                        No variables optimised in outer loop
                        eps_scf                                         1.00E-06
                        max_scf                                              100
                        DIIS optimization
                        DIIS buffer length                                     3
                        step_size                                       5.00E-01

 Spin 1

 Number of electrons:                                                        224
 Number of occupied orbitals:                                                224
 Number of molecular orbitals:                                               324

 Spin 2

 Number of electrons:                                                        224
 Number of occupied orbitals:                                                224
 Number of molecular orbitals:                                               324

 Number of orbital functions:                                               1465
 Number of independent orbital functions:                                   1465

 Extrapolation method: initial_guess


 SCF WAVEFUNCTION OPTIMIZATION

  Step     Update method      Time    Convergence         Total energy    Change
  ------------------------------------------------------------------------------
     1 NoMix/Diag. 0.10E+00    3.9     0.45132330      -627.8926975268 -6.28E+02
     2 Broy./Diag. 0.10E+00    7.2     0.10848739      -603.5200150774  2.44E+01
     3 Broy./Diag. 0.10E+00    7.4     0.15428878      -611.1927165621 -7.67E+00
     4 Broy./Diag. 0.10E+00    7.6     7.56593218      -625.5428105766 -1.44E+01
     5 Broy./Diag. 0.10E+00    7.7     7.56588792      -607.0333591353  1.85E+01
     6 Broy./Diag. 0.10E+00    7.8     0.43659782      -629.8874774255 -2.29E+01
     7 Broy./Diag. 0.10E+00    8.0     0.11844428      -630.8955164685 -1.01E+00
     8 Broy./Diag. 0.10E+00    8.2     7.69039174      -631.3351510322 -4.40E-01
     9 Broy./Diag. 0.10E+00    8.5     7.69677859      -608.7529129373  2.26E+01
    10 Broy./Diag. 0.10E+00    8.7     7.68072133      -631.3781411497 -2.26E+01
    11 Broy./Diag. 0.10E+00    8.7     7.68075093      -580.9906764733  5.04E+01
    12 Broy./Diag. 0.10E+00    8.8     7.71099516      -627.8261788748 -4.68E+01
    13 Broy./Diag. 0.10E+00    8.7     7.71103286      -608.9156109998  1.89E+01
    14 Broy./Diag. 0.10E+00    8.7     7.59754013      -631.7885529659 -2.29E+01
    15 Broy./Diag. 0.10E+00    8.7     7.59753995      -562.3019367974  6.95E+01
    16 Broy./Diag. 0.10E+00    8.7     7.60899073      -631.8152847872 -6.95E+01
    17 Broy./Diag. 0.10E+00    8.7     7.62712934      -608.5430826226  2.33E+01
    18 Broy./Diag. 0.10E+00    8.7     7.65150858      -608.4743819382  6.87E-02
    19 Broy./Diag. 0.10E+00    8.8     0.34495247      -631.8133810106 -2.33E+01
    20 Broy./Diag. 0.10E+00    8.8     0.34494185      -630.4496367351  1.36E+00
    21 Broy./Diag. 0.10E+00    8.7     0.02800045      -631.8751453995 -1.43E+00
    22 Broy./Diag. 0.10E+00    8.7     0.17082944      -631.9059015017 -3.08E-02
    23 Broy./Diag. 0.10E+00    8.7     0.16970629      -631.3649923593  5.41E-01
    24 Broy./Diag. 0.10E+00    8.7     0.01888423      -631.8904197810 -5.25E-01
    25 Broy./Diag. 0.10E+00    8.7     0.01790801      -631.9330302391 -4.26E-02
    26 Broy./Diag. 0.10E+00    8.9     0.00868426      -632.0928544357 -1.60E-01
    27 Broy./Diag. 0.10E+00    8.8     0.02903904      -632.1831695400 -9.03E-02
    28 Broy./Diag. 0.10E+00    8.8     0.03497573      -632.1318606461  5.13E-02
    29 Broy./Diag. 0.10E+00    9.1     0.01027434      -632.2263128823 -9.45E-02
    30 Broy./Diag. 0.10E+00    8.8     0.01212091      -632.2533048821 -2.70E-02
    31 Broy./Diag. 0.10E+00    8.8     0.01966245      -632.2928139665 -3.95E-02
    32 Broy./Diag. 0.10E+00    8.7     0.00927099      -632.3482475966 -5.54E-02
    33 Broy./Diag. 0.10E+00    8.9     0.01571719      -632.3666903333 -1.84E-02
    34 Broy./Diag. 0.10E+00    8.8     0.01745003      -632.3946956476 -2.80E-02
    35 Broy./Diag. 0.10E+00    8.8     0.00998794      -632.4066513722 -1.20E-02
    36 Broy./Diag. 0.10E+00    8.8     0.01201278      -632.4166506195 -1.00E-02
    37 Broy./Diag. 0.10E+00    8.8     0.01598385      -632.4233056542 -6.66E-03
    38 Broy./Diag. 0.10E+00    8.8     0.00737106      -632.4409993682 -1.77E-02
    39 Broy./Diag. 0.10E+00    8.8     0.00919704      -632.4527363551 -1.17E-02
    40 Broy./Diag. 0.10E+00    8.9     0.01545045      -632.4550812768 -2.34E-03
    41 Broy./Diag. 0.10E+00    8.8     0.00729933      -632.4686599228 -1.36E-02
    42 Broy./Diag. 0.10E+00    8.7     0.01204070      -632.4876832105 -1.90E-02
    43 Broy./Diag. 0.10E+00    8.7     0.00797897      -632.5046857509 -1.70E-02
    44 Broy./Diag. 0.10E+00    8.8     0.00814475      -632.5155035340 -1.08E-02
    45 Broy./Diag. 0.10E+00    8.7     0.01330646      -632.5122507978  3.25E-03
    46 Broy./Diag. 0.10E+00    8.8     0.00499823      -632.5107636429  1.49E-03
[...]
 -                      2                                   C_ghost            -
 -                      3                                   C_ghost            -
 -                      4                                   C_ghost            -
 -                      5                                   C_ghost            -
 -                      6                                   C_ghost            -
 -                      7                                   C_ghost            -
 -                      8                                   C_ghost            -
 -                      9                                   C_ghost            -
 -                     10                                   C_ghost            -
 -                     11                                   C_ghost            -
 -                     12                                   C_ghost            -
 -                     13                                   C_ghost            -
 -                     14                                   C_ghost            -
 -                     15                                   C_ghost            -
 -                     16                                   C_ghost            -
 -                     17                                   C_ghost            -
 -                     18                                   C_ghost            -
 -                     19                                   C_ghost            -
 -                     20                                   C_ghost            -
 -                     21                                   C_ghost            -
 -                     22                                   C_ghost            -
 -                     23                                   C_ghost            -
 -                     24                                   C_ghost            -
 -                     25                                   C_ghost            -
 -                     26                                   C_ghost            -
 -                     27                                   C_ghost            -
 -                     28                                   C_ghost            -
 -                     29                                   C_ghost            -
 -                     30                                   C_ghost            -
 -                     31                                   C_ghost            -
 -                     32                                   C_ghost            -
 -                     33                                   C_ghost            -
 -                     34                                   C_ghost            -
 -                     35                                   C_ghost            -
 -                     36                                   C_ghost            -
 -                     37                                   C_ghost            -
 -                     38                                   C_ghost            -
 -                     39                                   C_ghost            -
 -                     40                                   C_ghost            -
 -                     41                                   C_ghost            -
 -                     42                                   C_ghost            -
 -                     43                                   C_ghost            -
 -                     44                                   C_ghost            -
 -                     45                                   C_ghost            -
 -                     46                                   C_ghost            -
 -                     47                                   C_ghost            -
 -                     48                                   C_ghost            -
 -                     49                                   C_ghost            -
 -                     50                                   C_ghost            -
 -                     51                                   C_ghost            -
 -                     52                                   C_ghost            -
 -                     53                                   C_ghost            -
 -                     54                                   C_ghost            -
 -                     55                                   C_ghost            -
 -                     56                                   C_ghost            -
 -                     57                                   C_ghost            -
 -                     58                                   C_ghost            -
 -                     59                                   C_ghost            -
 -                     60                                   C_ghost            -
 -                     61                                   C_ghost            -
 -                     62                                   C_ghost            -
 -                     63                                   C_ghost            -
 -                     64                                   C_ghost            -
 -                     65                                   C_ghost            -
 -                     66                                   C_ghost            -
 -                     67                                   C_ghost            -
 -                     68                                   C_ghost            -
 -                     69                                   C_ghost            -
 -                     70                                   C_ghost            -
 -                     71                                   C_ghost            -
 -                     72                                   C_ghost            -
 -                     73                                   C_ghost            -
 -                     74                                   C_ghost            -
 -                     75                                   C_ghost            -
 -                     76                                   C_ghost            -
 -                     77                                   C_ghost            -
 -                     78                                   C_ghost            -
 -                     79                                   C_ghost            -
 -                     80                                   C_ghost            -
 -                     81                                   C_ghost            -
 -                     82                                   C_ghost            -
 -                     83                                   C_ghost            -
 -                     84                                   C_ghost            -
 -                     85                                   C_ghost            -
 -                     86                                   C_ghost            -
 -                     87                                   C_ghost            -
 -                     88                                   C_ghost            -
 -                     89                                   C_ghost            -
 -                     90                                   C_ghost            -
 -                     91                                   C_ghost            -
 -                     92                                   C_ghost            -
 -                     93                                   C_ghost            -
 -                     94                                   C_ghost            -
 -                     95                                   C_ghost            -
 -                     96                                   C_ghost            -
 -                     97                                   C_ghost            -
 -                     98                                   C_ghost            -
 -                     99                                   C_ghost            -
 -                    100                                   C_ghost            -
 -                    101                                   C_ghost            -
 -                    102                                   C_ghost            -
 -                    103                                   C_ghost            -
 -                    104                                   C_ghost            -
 -                    105                                   C_ghost            -
 -                    106                                   C_ghost            -
 -                    107                                   C_ghost            -
 -                    108                                   C_ghost            -
 -                    109                                   C_ghost            -
 -                    110                                   C_ghost            -
 -                    111                                   C_ghost            -
 -                    112                                   C_ghost            -
 -                    113                                   Na                 -
 -------------------------------------------------------------------------------

 *******************************************************************************
 *******************************************************************************
 **                                                                           **
 **     #####                         ##              ##                      **
 **    ##   ##            ##          ##              ##                      **
 **   ##     ##                       ##            ######                    **
 **   ##     ##  ##   ##  ##   #####  ##  ##   ####   ##    #####    #####    **
 **   ##     ##  ##   ##  ##  ##      ## ##   ##      ##   ##   ##  ##   ##   **
 **   ##  ## ##  ##   ##  ##  ##      ####     ###    ##   ######   ######    **
 **    ##  ###   ##   ##  ##  ##      ## ##      ##   ##   ##       ##        **
 **     #######   #####   ##   #####  ##  ##  ####    ##    #####   ##        **
 **           ##                                                    ##        **
 **                                                                           **
 **                                                ... make the atoms dance   **
 **                                                                           **
 **            Copyright (C) by CP2K developers group (2000 - 2018)           **
 **                                                                           **
 *******************************************************************************


 TOTAL NUMBERS AND MAXIMUM NUMBERS

  Total number of            - Atomic kinds:                                   2
                             - Atoms:                                        113
                             - Shell sets:                                   113
                             - Shells:                                       565
                             - Primitive Cartesian functions:                567
                             - Cartesian basis functions:                   1577
                             - Spherical basis functions:                   1465

  Maximum angular momentum of- Orbital basis functions:                        2
                             - Local part of the GTH pseudopotential:          2
                             - Non-local part of the GTH pseudopotential:      1


 SCF PARAMETERS         Density guess:                                    ATOMIC
                        --------------------------------------------------------
                        max_scf:                                             400
                        max_scf_history:                                       0
                        max_diis:                                              4
                        --------------------------------------------------------
                        eps_scf:                                        3.00E-07
                        eps_scf_history:                                0.00E+00
                        eps_diis:                                       1.00E-01
                        eps_eigval:                                     1.00E-05
                        --------------------------------------------------------
                        level_shift [a.u.]:                                 0.00
                        added MOs                                       100  100
                        --------------------------------------------------------
                        Mixing method:                            BROYDEN_MIXING
                                                charge density mixing in g-space
                        --------------------------------------------------------
                        Smear method:                                FERMI_DIRAC
                        Electronic temperature [K]:                        300.0
                        Electronic temperature [a.u.]:                  9.50E-04
                        Accuracy threshold:                             1.00E-10
                        --------------------------------------------------------
                        Outer loop SCF in use 
                        No variables optimised in outer loop
                        eps_scf                                         1.00E-06
                        max_scf                                              100
                        DIIS optimization
                        DIIS buffer length                                     3
                        step_size                                       5.00E-01

 Spin 1

 Number of electrons:                                                          5
 Number of occupied orbitals:                                                  5
 Number of molecular orbitals:                                               105

 Spin 2

 Number of electrons:                                                          4
 Number of occupied orbitals:                                                  4
 Number of molecular orbitals:                                               104

 Number of orbital functions:                                               1465
 Number of independent orbital functions:                                   1465

 Extrapolation method: initial_guess


 SCF WAVEFUNCTION OPTIMIZATION

  Step     Update method      Time    Convergence         Total energy    Change
  ------------------------------------------------------------------------------
     1 NoMix/Diag. 0.10E+00    3.6     0.36224106       -47.1649297304 -4.72E+01
     2 Broy./Diag. 0.10E+00    6.9     0.01264080       -47.1438813878  2.10E-02
     3 Broy./Diag. 0.10E+00    7.1     0.07548654       -47.1655566755 -2.17E-02
     4 Broy./Diag. 0.10E+00    7.2     0.00074322       -47.1487989108  1.68E-02
     5 Broy./Diag. 0.10E+00    7.3     0.00823720       -47.1591557902 -1.04E-02
     6 Broy./Diag. 0.10E+00    7.5     0.00118391       -47.1527223460  6.43E-03
     7 Broy./Diag. 0.10E+00    7.7     0.01208693       -47.1572714834 -4.55E-03
     8 Broy./Diag. 0.10E+00    7.9     0.00426803       -47.1783466062 -2.11E-02
     9 Broy./Diag. 0.10E+00    8.1     0.00107019       -47.1709985832  7.35E-03
    10 Broy./Diag. 0.10E+00    8.3     0.00549813       -47.1695092119  1.49E-03
    11 Broy./Diag. 0.10E+00    8.3     0.00086167       -47.1777512213 -8.24E-03
    12 Broy./Diag. 0.10E+00    8.3     0.00229168       -47.1755038634  2.25E-03
    13 Broy./Diag. 0.10E+00    8.4     0.00257821       -47.1714356962  4.07E-03
    14 Broy./Diag. 0.10E+00    8.3     0.00091830       -47.1735149173 -2.08E-03
    15 Broy./Diag. 0.10E+00    8.4     0.00121761       -47.1697434817  3.77E-03
    16 Broy./Diag. 0.10E+00    8.3     0.00016363       -47.1699152985 -1.72E-04
    17 Broy./Diag. 0.10E+00    8.3     0.00041632       -47.1682598968  1.66E-03
    18 Broy./Diag. 0.10E+00    8.3     0.00025004       -47.1673779158  8.82E-04
    19 Broy./Diag. 0.10E+00    8.3     0.00027961       -47.1666318591  7.46E-04
    20 Broy./Diag. 0.10E+00    8.3     0.00021377       -47.1674534657 -8.22E-04
    21 Broy./Diag. 0.10E+00    8.4     0.00020792       -47.1692927314 -1.84E-03
    22 Broy./Diag. 0.10E+00    8.4     0.00020269       -47.1599906359  9.30E-03
    23 Broy./Diag. 0.10E+00    8.3     0.00016055       -47.1598445071  1.46E-04
    24 Broy./Diag. 0.10E+00    8.3     0.00011034       -47.1598862567 -4.17E-05
    25 Broy./Diag. 0.10E+00    8.3     0.00037935       -47.1608173657 -9.31E-04
    26 Broy./Diag. 0.10E+00    8.3     0.00010706       -47.1593507962  1.47E-03
    27 Broy./Diag. 0.10E+00    8.3     0.00019405       -47.1555470819  3.80E-03
    28 Broy./Diag. 0.10E+00    8.3     0.00006003       -47.1566641879 -1.12E-03
    29 Broy./Diag. 0.10E+00    8.4     0.00005276       -47.1566496345  1.46E-05
    30 Broy./Diag. 0.10E+00    8.3     0.00021347       -47.1562389601  4.11E-04
    31 Broy./Diag. 0.10E+00    8.3     0.00009686       -47.1557418308  4.97E-04
    32 Broy./Diag. 0.10E+00    8.3     0.00003297       -47.1559810725 -2.39E-04
    33 Broy./Diag. 0.10E+00    8.3     0.00004068       -47.1562110793 -2.30E-04
    34 Broy./Diag. 0.10E+00    8.3     0.00010936       -47.1559188648  2.92E-04
    35 Broy./Diag. 0.10E+00    8.3     0.00011286       -47.1558655209  5.33E-05
    36 Broy./Diag. 0.10E+00    8.4     0.00007032       -47.1559517547 -8.62E-05
    37 Broy./Diag. 0.10E+00    8.4     0.00001174       -47.1559914216 -3.97E-05
    38 Broy./Diag. 0.10E+00    8.3     0.00002330       -47.1557304860  2.61E-04
    39 Broy./Diag. 0.10E+00    8.3     0.00001855       -47.1558946695 -1.64E-04
    40 Broy./Diag. 0.10E+00    8.3     0.00000793       -47.1558952810 -6.12E-07
    41 Broy./Diag. 0.10E+00    8.3     0.00000545       -47.1558503337  4.49E-05
    42 Broy./Diag. 0.10E+00    8.3     0.00000697       -47.1558895834 -3.92E-05
    43 Broy./Diag. 0.10E+00    8.3     0.00000700       -47.1559076328 -1.80E-05
    44 Broy./Diag. 0.10E+00    8.4     0.00000648       -47.1558912040  1.64E-05
    45 Broy./Diag. 0.10E+00    8.4     0.00002000       -47.1558837108  7.49E-06
    46 Broy./Diag. 0.10E+00    8.3     0.00000460       -47.1558488491  3.49E-05
    47 Broy./Diag. 0.10E+00    8.3     0.00001697       -47.1558437270  5.12E-06
    48 Broy./Diag. 0.10E+00    8.3     0.00000817       -47.1558419299  1.80E-06
    49 Broy./Diag. 0.10E+00    8.3     0.00001608       -47.1558322184  9.71E-06
    50 Broy./Diag. 0.10E+00    8.3     0.00000308       -47.1558374964 -5.28E-06
    51 Broy./Diag. 0.10E+00    8.3     0.00000643       -47.1558827418 -4.52E-05
    52 Broy./Diag. 0.10E+00    8.3     0.00000392       -47.1558746694  8.07E-06
    53 Broy./Diag. 0.10E+00    8.3     0.00000176       -47.1558571257  1.75E-05
    54 Broy./Diag. 0.10E+00    8.3     0.00000986       -47.1558658817 -8.76E-06
    55 Broy./Diag. 0.10E+00    8.3     0.00001542       -47.1558661045 -2.23E-07
    56 Broy./Diag. 0.10E+00    8.2     0.00001009       -47.1558755017 -9.40E-06
    57 Broy./Diag. 0.10E+00    8.2     0.00001053       -47.1558672128  8.29E-06
    58 Broy./Diag. 0.10E+00    8.3     0.00001253       -47.1558516952  1.55E-05
    59 Broy./Diag. 0.10E+00    8.3     0.00000961       -47.1558366341  1.51E-05
    60 Broy./Diag. 0.10E+00    8.3     0.00000395       -47.1558480816 -1.14E-05
    61 Broy./Diag. 0.10E+00    8.2     0.00000707       -47.1558738049 -2.57E-05
    62 Broy./Diag. 0.10E+00    8.2     0.00000366       -47.1558612958  1.25E-05
    63 Broy./Diag. 0.10E+00    8.2     0.00000615       -47.1558642796 -2.98E-06
-------------------------------------------------------
Primary job  terminated normally, but 1 process returned
a non-zero exit code. Per user-direction, the job has been aborted.
-------------------------------------------------------
