 DBCSR| Multiplication driver                                               XSMM
 DBCSR| Multrec recursion limit                                              512
 DBCSR| Multiplication stack size                                           1000
 DBCSR| Maximum elements for images                                    UNLIMITED
 DBCSR| Multiplicative factor virtual images                                   1
 DBCSR| Multiplication size stacks                                             3
 DBCSR| Number of 3D layers                                               SINGLE
 DBCSR| Use MPI memory allocation                                              T
 DBCSR| Use RMA algorithm                                                      F
 DBCSR| Use Communication thread                                               T
 DBCSR| Communication thread load                                             87


  **** **** ******  **  PROGRAM STARTED AT               2024-07-19 16:52:19.035
 ***** ** ***  *** **   PROGRAM STARTED ON                            sebnode132
 **    ****   ******    PROGRAM STARTED BY                                luehrs
 ***** **    ** ** **   PROGRAM PROCESS ID                                602088
  **** **  *******  **  PROGRAM STARTED IN /home/luehrs/PhD/Sodium_batteries/Sod
                                           ium-graphene-edge/Zig_zag_3/No_hydrog
                                           en

 CP2K| version string:                    CP2K version 7.0 (Development Version)
 CP2K| source code revision number:                                             
 CP2K| cp2kflags: libint fftw3 libxc parallel mpi3 scalapack xsmm libderiv_max_a
 CP2K|            m1=8 libint_max_am=9 max_contr=4
 CP2K| is freely available from                            https://www.cp2k.org/
 CP2K| Program compiled at                         Sun Jun 24 14:37:16 CEST 2018
 CP2K| Program compiled on                                            sebstorage
 CP2K| Program compiled for                                Linux-x86-64-gfortran
 CP2K| Data directory path    /home/brehm/Software_Batchnode/2018/Source/cp2k_18
 CP2K| Input file name                                         input.zig-zag.inp

 GLOBAL| Force Environment number                                              1
 GLOBAL| Basis set file name                                      ./BASIS_MOLOPT
 GLOBAL| Potential file name                                    ./GTH_POTENTIALS
 GLOBAL| MM Potential file name                                     MM_POTENTIAL
 GLOBAL| Coordinate file name           graphene_no_hydrogen_zig-zag_relaxed.xyz
 GLOBAL| Method name                                                        CP2K
 GLOBAL| Project name                                      graphene_zig_zag_BSSE
 GLOBAL| Preferred FFT library                                             FFTW3
 GLOBAL| Preferred diagonalization lib.                                       SL
 GLOBAL| Run type                                                           BSSE
 GLOBAL| All-to-all communication in single precision                          F
 GLOBAL| FFTs using library dependent lengths                                  F
 GLOBAL| Global print level                                                  LOW
 GLOBAL| Total number of message passing processes                            16
 GLOBAL| Number of threads for this process                                    1
 GLOBAL| This output is from process                                           0
 GLOBAL| CPU model name :  AMD EPYC 7513 32-Core Processor

 MEMORY| system memory details [Kb]
 MEMORY|                        rank 0           min           max       average
 MEMORY| MemTotal            131897348     131897348     131897348     131897348
 MEMORY| MemFree              33803588      33803588      33803588      33803588
 MEMORY| Buffers                111212        111212        111212        111212
 MEMORY| Cached               93989508      93989508      93989508      93989508
 MEMORY| Slab                  1231608       1231608       1231608       1231608
 MEMORY| SReclaimable           399592        399592        399592        399592
 MEMORY| MemLikelyFree       128303900     128303900     128303900     128303900


 *******************************************************************************
 *   ___                                                                       *
 *  /   \                                                                      *
 * [ABORT]         An integer type object was expected, found <C>, File:       *
 *  \___/     'graphene_no_hydrogen_zig-zag_relaxed.xyz', Line: 1, Column: ,   *
 *    |                                 Chunk: <C>                             *
 *  O/|                                                                        *
 * /| |                                                                        *
 * / \                                          input/cp_parser_methods.F:1043 *
 *******************************************************************************


 ===== Routine Calling Stack ===== 

            5 read_coordinate_xyz
            4 coordinate_control_READ_COORDINATE
            3 coordinate_control
            2 topology_control
            1 CP2K
