 DBCSR| Multiplication driver                                               XSMM
 DBCSR| Multrec recursion limit                                              512
 DBCSR| Multiplication stack size                                           1000
 DBCSR| Maximum elements for images                                    UNLIMITED
 DBCSR| Multiplicative factor virtual images                                   1
 DBCSR| Multiplication size stacks                                             3
 DBCSR| Number of 3D layers                                               SINGLE
 DBCSR| Use MPI memory allocation                                              T
 DBCSR| Use RMA algorithm                                                      F
 DBCSR| Use Communication thread                                               T
 DBCSR| Communication thread load                                             87


  **** **** ******  **  PROGRAM STARTED AT               2024-07-25 14:39:23.124
 ***** ** ***  *** **   PROGRAM STARTED ON                            sebnode131
 **    ****   ******    PROGRAM STARTED BY                                luehrs
 ***** **    ** ** **   PROGRAM PROCESS ID                                341294
  **** **  *******  **  PROGRAM STARTED IN /home/luehrs/PhD/Sodium_batteries/Sod
                                           ium-graphene-edge/Zig_zag_3/No_hydrog
                                           en

 CP2K| version string:                    CP2K version 7.0 (Development Version)
 CP2K| source code revision number:                                             
 CP2K| cp2kflags: libint fftw3 libxc parallel mpi3 scalapack xsmm libderiv_max_a
 CP2K|            m1=8 libint_max_am=9 max_contr=4
 CP2K| is freely available from                            https://www.cp2k.org/
 CP2K| Program compiled at                         Sun Jun 24 14:37:16 CEST 2018
 CP2K| Program compiled on                                            sebstorage
 CP2K| Program compiled for                                Linux-x86-64-gfortran
 CP2K| Data directory path    /home/brehm/Software_Batchnode/2018/Source/cp2k_18
 CP2K| Input file name                                         input.zig-zag.inp

 GLOBAL| Force Environment number                                              1
 GLOBAL| Basis set file name                                      ./BASIS_MOLOPT
 GLOBAL| Potential file name                                    ./GTH_POTENTIALS
 GLOBAL| MM Potential file name                                     MM_POTENTIAL
 GLOBAL| Coordinate file name           graphene_no_hydrogen_zig-zag_relaxed.xyz
 GLOBAL| Method name                                                        CP2K
 GLOBAL| Project name                                      graphene_zig_zag_BSSE
 GLOBAL| Preferred FFT library                                             FFTW3
 GLOBAL| Preferred diagonalization lib.                                       SL
 GLOBAL| Run type                                                           BSSE
 GLOBAL| All-to-all communication in single precision                          F
 GLOBAL| FFTs using library dependent lengths                                  F
 GLOBAL| Global print level                                                  LOW
 GLOBAL| Total number of message passing processes                            16
 GLOBAL| Number of threads for this process                                    1
 GLOBAL| This output is from process                                           0
 GLOBAL| CPU model name :  AMD EPYC 7513 32-Core Processor

 MEMORY| system memory details [Kb]
 MEMORY|                        rank 0           min           max       average
 MEMORY| MemTotal            131901556     131901556     131901556     131901556
 MEMORY| MemFree              61673608      61673608      61673608      61673608
 MEMORY| Buffers                139760        139760        139760        139760
 MEMORY| Cached                 460508        460508        460508        460508
 MEMORY| Slab                  1282996       1282996       1282996       1282996
 MEMORY| SReclaimable           451228        451228        451228        451228
 MEMORY| MemLikelyFree        62725104      62725104      62725104      62725104


 GENERATE|  Preliminary Number of Bonds generated:                             0
 GENERATE|  Achieved consistency in connectivity generation.

 *******************************************************************************
 *******************************************************************************
 **                                                                           **
 **     #####                         ##              ##                      **
 **    ##   ##            ##          ##              ##                      **
 **   ##     ##                       ##            ######                    **
 **   ##     ##  ##   ##  ##   #####  ##  ##   ####   ##    #####    #####    **
 **   ##     ##  ##   ##  ##  ##      ## ##   ##      ##   ##   ##  ##   ##   **
 **   ##  ## ##  ##   ##  ##  ##      ####     ###    ##   ######   ######    **
 **    ##  ###   ##   ##  ##  ##      ## ##      ##   ##   ##       ##        **
 **     #######   #####   ##   #####  ##  ##  ####    ##    #####   ##        **
 **           ##                                                    ##        **
 **                                                                           **
 **                                                ... make the atoms dance   **
 **                                                                           **
 **            Copyright (C) by CP2K developers group (2000 - 2018)           **
 **                                                                           **
 *******************************************************************************


 TOTAL NUMBERS AND MAXIMUM NUMBERS

  Total number of            - Atomic kinds:                                   2
                             - Atoms:                                        113
                             - Shell sets:                                   113
                             - Shells:                                       565
                             - Primitive Cartesian functions:                567
                             - Cartesian basis functions:                   1577
                             - Spherical basis functions:                   1465

  Maximum angular momentum of- Orbital basis functions:                        2
                             - Local part of the GTH pseudopotential:          2
                             - Non-local part of the GTH pseudopotential:      1


 SCF PARAMETERS         Density guess:                                    ATOMIC
                        --------------------------------------------------------
                        max_scf:                                             400
                        max_scf_history:                                       0
                        max_diis:                                              4
                        --------------------------------------------------------
                        eps_scf:                                        3.00E-07
                        eps_scf_history:                                0.00E+00
                        eps_diis:                                       1.00E-01
                        eps_eigval:                                     1.00E-05
                        --------------------------------------------------------
                        level_shift [a.u.]:                                 0.00
                        added MOs                                       100  100
                        --------------------------------------------------------
                        Mixing method:                            BROYDEN_MIXING
                                                charge density mixing in g-space
                        --------------------------------------------------------
                        Smear method:                                FERMI_DIRAC
                        Electronic temperature [K]:                        300.0
                        Electronic temperature [a.u.]:                  9.50E-04
                        Accuracy threshold:                             1.00E-10
                        --------------------------------------------------------
                        Outer loop SCF in use 
                        No variables optimised in outer loop
                        eps_scf                                         1.00E-06
                        max_scf                                              100
                        DIIS optimization
                        DIIS buffer length                                     3
                        step_size                                       5.00E-01

 -------------------------------------------------------------------------------
 -                                                                             -
 -  BSSE CALCULATION         FRAGMENT CONF: 10        FRAGMENT SUBCONF: 10     -
 -                           CHARGE =     0           MULTIPLICITY =     0     -
 -                                                                             -
 -                 ATOM INDEX                              ATOM NAME           -
 -                 ----------                              ---------           -
 -                      1                                   C                  -
 -                      2                                   C                  -
 -                      3                                   C                  -
 -                      4                                   C                  -
 -                      5                                   C                  -
 -                      6                                   C                  -
 -                      7                                   C                  -
 -                      8                                   C                  -
 -                      9                                   C                  -
 -                     10                                   C                  -
 -                     11                                   C                  -
 -                     12                                   C                  -
 -                     13                                   C                  -
 -                     14                                   C                  -
 -                     15                                   C                  -
 -                     16                                   C                  -
 -                     17                                   C                  -
 -                     18                                   C                  -
 -                     19                                   C                  -
 -                     20                                   C                  -
 -                     21                                   C                  -
 -                     22                                   C                  -
 -                     23                                   C                  -
 -                     24                                   C                  -
 -                     25                                   C                  -
 -                     26                                   C                  -
 -                     27                                   C                  -
 -                     28                                   C                  -
 -                     29                                   C                  -
 -                     30                                   C                  -
 -                     31                                   C                  -
 -                     32                                   C                  -
 -                     33                                   C                  -
 -                     34                                   C                  -
 -                     35                                   C                  -
 -                     36                                   C                  -
 -                     37                                   C                  -
 -                     38                                   C                  -
 -                     39                                   C                  -
 -                     40                                   C                  -
 -                     41                                   C                  -
 -                     42                                   C                  -
 -                     43                                   C                  -
 -                     44                                   C                  -
 -                     45                                   C                  -
 -                     46                                   C                  -
 -                     47                                   C                  -
 -                     48                                   C                  -
 -                     49                                   C                  -
 -                     50                                   C                  -
 -                     51                                   C                  -
 -                     52                                   C                  -
 -                     53                                   C                  -
 -                     54                                   C                  -
 -                     55                                   C                  -
 -                     56                                   C                  -
 -                     57                                   C                  -
 -                     58                                   C                  -
 -                     59                                   C                  -
 -                     60                                   C                  -
 -                     61                                   C                  -
 -                     62                                   C                  -
 -                     63                                   C                  -
 -                     64                                   C                  -
 -                     65                                   C                  -
 -                     66                                   C                  -
 -                     67                                   C                  -
 -                     68                                   C                  -
 -                     69                                   C                  -
 -                     70                                   C                  -
 -                     71                                   C                  -
 -                     72                                   C                  -
 -                     73                                   C                  -
 -                     74                                   C                  -
 -                     75                                   C                  -
 -                     76                                   C                  -
 -                     77                                   C                  -
 -                     78                                   C                  -
 -                     79                                   C                  -
 -                     80                                   C                  -
 -                     81                                   C                  -
 -                     82                                   C                  -
 -                     83                                   C                  -
 -                     84                                   C                  -
 -                     85                                   C                  -
 -                     86                                   C                  -
 -                     87                                   C                  -
 -                     88                                   C                  -
 -                     89                                   C                  -
 -                     90                                   C                  -
 -                     91                                   C                  -
 -                     92                                   C                  -
 -                     93                                   C                  -
 -                     94                                   C                  -
 -                     95                                   C                  -
 -                     96                                   C                  -
 -                     97                                   C                  -
 -                     98                                   C                  -
 -                     99                                   C                  -
 -                    100                                   C                  -
 -                    101                                   C                  -
 -                    102                                   C                  -
 -                    103                                   C                  -
 -                    104                                   C                  -
 -                    105                                   C                  -
 -                    106                                   C                  -
 -                    107                                   C                  -
 -                    108                                   C                  -
 -                    109                                   C                  -
 -                    110                                   C                  -
 -                    111                                   C                  -
 -                    112                                   C                  -
 -------------------------------------------------------------------------------

 *******************************************************************************
 *******************************************************************************
 **                                                                           **
 **     #####                         ##              ##                      **
 **    ##   ##            ##          ##              ##                      **
 **   ##     ##                       ##            ######                    **
 **   ##     ##  ##   ##  ##   #####  ##  ##   ####   ##    #####    #####    **
 **   ##     ##  ##   ##  ##  ##      ## ##   ##      ##   ##   ##  ##   ##   **
 **   ##  ## ##  ##   ##  ##  ##      ####     ###    ##   ######   ######    **
 **    ##  ###   ##   ##  ##  ##      ## ##      ##   ##   ##       ##        **
 **     #######   #####   ##   #####  ##  ##  ####    ##    #####   ##        **
 **           ##                                                    ##        **
 **                                                                           **
 **                                                ... make the atoms dance   **
 **                                                                           **
 **            Copyright (C) by CP2K developers group (2000 - 2018)           **
 **                                                                           **
 *******************************************************************************


 TOTAL NUMBERS AND MAXIMUM NUMBERS

  Total number of            - Atomic kinds:                                   1
                             - Atoms:                                        112
                             - Shell sets:                                   112
                             - Shells:                                       560
                             - Primitive Cartesian functions:                560
                             - Cartesian basis functions:                   1568
                             - Spherical basis functions:                   1456

  Maximum angular momentum of- Orbital basis functions:                        2
                             - Local part of the GTH pseudopotential:          2
                             - Non-local part of the GTH pseudopotential:      0


 SCF PARAMETERS         Density guess:                                    ATOMIC
                        --------------------------------------------------------
                        max_scf:                                             400
                        max_scf_history:                                       0
                        max_diis:                                              4
                        --------------------------------------------------------
                        eps_scf:                                        3.00E-07
                        eps_scf_history:                                0.00E+00
                        eps_diis:                                       1.00E-01
                        eps_eigval:                                     1.00E-05
                        --------------------------------------------------------
                        level_shift [a.u.]:                                 0.00
                        added MOs                                       100  100
                        --------------------------------------------------------
                        Mixing method:                            BROYDEN_MIXING
                                                charge density mixing in g-space
                        --------------------------------------------------------
                        Smear method:                                FERMI_DIRAC
                        Electronic temperature [K]:                        300.0
                        Electronic temperature [a.u.]:                  9.50E-04
                        Accuracy threshold:                             1.00E-10
                        --------------------------------------------------------
                        Outer loop SCF in use 
                        No variables optimised in outer loop
                        eps_scf                                         1.00E-06
                        max_scf                                              100
                        DIIS optimization
                        DIIS buffer length                                     3
                        step_size                                       5.00E-01

 Spin 1

 Number of electrons:                                                        224
 Number of occupied orbitals:                                                224
 Number of molecular orbitals:                                               324

 Spin 2

 Number of electrons:                                                        224
 Number of occupied orbitals:                                                224
 Number of molecular orbitals:                                               324

 Number of orbital functions:                                               1456
 Number of independent orbital functions:                                   1456

 Extrapolation method: initial_guess


 SCF WAVEFUNCTION OPTIMIZATION

  Step     Update method      Time    Convergence         Total energy    Change
  ------------------------------------------------------------------------------
     1 NoMix/Diag. 0.10E+00    2.3     0.45131248      -627.8926975268 -6.28E+02
     2 Broy./Diag. 0.10E+00    4.4     0.08614265      -603.5106157260  2.44E+01
     3 Broy./Diag. 0.10E+00    4.8     0.13634700      -612.0300453973 -8.52E+00
     4 Broy./Diag. 0.10E+00    4.8     7.44361018      -625.7649932678 -1.37E+01
     5 Broy./Diag. 0.10E+00    4.7     7.44356965      -607.4243106701  1.83E+01
     6 Broy./Diag. 0.10E+00    5.1     0.42291860      -629.8082373170 -2.24E+01
     7 Broy./Diag. 0.10E+00    4.7     0.14390238      -630.8803955662 -1.07E+00
     8 Broy./Diag. 0.10E+00    6.9     7.60663438      -631.3389361823 -4.59E-01
     9 Broy./Diag. 0.10E+00    6.3     7.60663188      -586.2429948663  4.51E+01
    10 Broy./Diag. 0.10E+00    7.1     7.58840455      -631.4503849681 -4.52E+01
    11 Broy./Diag. 0.10E+00    6.2     7.58840246      -557.2568048992  7.42E+01
    12 Broy./Diag. 0.10E+00    7.1     7.61165022      -631.6120593913 -7.44E+01
    13 Broy./Diag. 0.10E+00    5.9     7.61164756      -562.0642590757  6.95E+01
    14 Broy./Diag. 0.10E+00    7.2     0.12007836      -631.7812572134 -6.97E+01
    15 Broy./Diag. 0.10E+00    6.1     0.09705706      -631.5648015689  2.16E-01
    16 Broy./Diag. 0.10E+00    7.4     7.55373445      -631.8936444430 -3.29E-01
    17 Broy./Diag. 0.10E+00    6.0     7.55431950      -587.0252551668  4.49E+01
    18 Broy./Diag. 0.10E+00    7.3     7.48398432      -631.8956313932 -4.49E+01
    19 Broy./Diag. 0.10E+00    6.1     7.48664527      -609.4025908899  2.25E+01
    20 Broy./Diag. 0.10E+00    7.3     7.64387034      -631.9234760431 -2.25E+01
    21 Broy./Diag. 0.10E+00    6.0     7.64386843      -608.7119626540  2.32E+01
    22 Broy./Diag. 0.10E+00    7.3     0.06041623      -631.8510088610 -2.31E+01
    23 Broy./Diag. 0.10E+00    6.2     0.00802959      -631.9534912719 -1.02E-01
    24 Broy./Diag. 0.10E+00    7.3     0.01230342      -631.9302415854  2.32E-02
    25 Broy./Diag. 0.10E+00    6.2     0.02053117      -631.9885951513 -5.84E-02
    26 Broy./Diag. 0.10E+00    7.2     0.01162838      -632.1750277185 -1.86E-01
    27 Broy./Diag. 0.10E+00    6.1     0.00708238      -632.2227452351 -4.77E-02
    28 Broy./Diag. 0.10E+00    7.1     0.02023628      -632.2652123013 -4.25E-02
    29 Broy./Diag. 0.10E+00    6.1     0.01547100      -632.3134760577 -4.83E-02
    30 Broy./Diag. 0.10E+00    7.2     0.01748822      -632.3680378920 -5.46E-02
    31 Broy./Diag. 0.10E+00    6.3     0.01639045      -632.4152215225 -4.72E-02
    32 Broy./Diag. 0.10E+00    7.6     0.01043857      -632.4389562740 -2.37E-02
    33 Broy./Diag. 0.10E+00    6.3     0.00825415      -632.4525968238 -1.36E-02
    34 Broy./Diag. 0.10E+00    7.5     0.00626612      -632.4695235993 -1.69E-02
    35 Broy./Diag. 0.10E+00    6.3     0.00406302      -632.4871269854 -1.76E-02
    36 Broy./Diag. 0.10E+00    7.4     0.00848003      -632.4941363001 -7.01E-03
    37 Broy./Diag. 0.10E+00    6.5     0.00475737      -632.5098773390 -1.57E-02
    38 Broy./Diag. 0.10E+00    7.3     0.00254966      -632.5098434419  3.39E-05
    39 Broy./Diag. 0.10E+00    6.7     0.00863156      -632.5112376130 -1.39E-03
    40 Broy./Diag. 0.10E+00    7.3     0.00703796      -632.5110269194  2.11E-04
    41 Broy./Diag. 0.10E+00    6.8     0.00305864      -632.5089903978  2.04E-03
    42 Broy./Diag. 0.10E+00    7.1     0.00341624      -632.5059575295  3.03E-03
    43 Broy./Diag. 0.10E+00    6.9     0.00209255      -632.5099902666 -4.03E-03
    44 Broy./Diag. 0.10E+00    7.0     0.00186645      -632.5103150214 -3.25E-04
    45 Broy./Diag. 0.10E+00    7.2     0.00419960      -632.5066024580  3.71E-03
    46 Broy./Diag. 0.10E+00    6.7     0.00378778      -632.5059427170  6.60E-04
    47 Broy./Diag. 0.10E+00    7.5     0.00202997      -632.5138195572 -7.88E-03
    48 Broy./Diag. 0.10E+00    6.3     0.00348637      -632.5117697582  2.05E-03
    49 Broy./Diag. 0.10E+00    7.5     0.00522603      -632.5174138622 -5.64E-03
    50 Broy./Diag. 0.10E+00    6.1     0.00643463      -632.5199563833 -2.54E-03
    51 Broy./Diag. 0.10E+00    7.3     0.00567650      -632.5191257821  8.31E-04
    52 Broy./Diag. 0.10E+00    6.1     0.00117469      -632.5214365346 -2.31E-03
    53 Broy./Diag. 0.10E+00    7.2     0.00132118      -632.5229520508 -1.52E-03
    54 Broy./Diag. 0.10E+00    6.3     0.00105496      -632.5282633591 -5.31E-03
    55 Broy./Diag. 0.10E+00    7.3     0.00151464      -632.5358944982 -7.63E-03
    56 Broy./Diag. 0.10E+00    6.0     0.00074958      -632.5401019935 -4.21E-03
    57 Broy./Diag. 0.10E+00    7.2     0.00090972      -632.5445690831 -4.47E-03
    58 Broy./Diag. 0.10E+00    6.0     0.00062495      -632.5479329636 -3.36E-03
    59 Broy./Diag. 0.10E+00    7.2     0.00076751      -632.5517680857 -3.84E-03
    60 Broy./Diag. 0.10E+00    6.3     0.00042621      -632.5549806234 -3.21E-03
    61 Broy./Diag. 0.10E+00    7.6     0.00037215      -632.5574155854 -2.43E-03
    62 Broy./Diag. 0.10E+00    6.2     0.00057680      -632.5596407861 -2.23E-03
    63 Broy./Diag. 0.10E+00    7.6     0.00047684      -632.5609349846 -1.29E-03
    64 Broy./Diag. 0.10E+00    6.6     0.00048743      -632.5610367074 -1.02E-04
    65 Broy./Diag. 0.10E+00    7.3     0.00032237      -632.5610119249  2.48E-05
    66 Broy./Diag. 0.10E+00    6.7     0.00024120      -632.5608531780  1.59E-04
    67 Broy./Diag. 0.10E+00    7.2     0.00021800      -632.5605222953  3.31E-04
    68 Broy./Diag. 0.10E+00    7.0     0.00049922      -632.5593735874  1.15E-03
    69 Broy./Diag. 0.10E+00    7.1     0.00026214      -632.5584337600  9.40E-04
    70 Broy./Diag. 0.10E+00    7.1     0.00022572      -632.5575241945  9.10E-04
    71 Broy./Diag. 0.10E+00    6.8     0.00017331      -632.5580782689 -5.54E-04
    72 Broy./Diag. 0.10E+00    7.2     0.00018521      -632.5591275940 -1.05E-03
    73 Broy./Diag. 0.10E+00    6.7     0.00009140      -632.5612548123 -2.13E-03
    74 Broy./Diag. 0.10E+00    7.3     0.00013082      -632.5630286517 -1.77E-03
    75 Broy./Diag. 0.10E+00    6.3     0.00007938      -632.5640345410 -1.01E-03
    76 Broy./Diag. 0.10E+00    7.5     0.00008050      -632.5648967739 -8.62E-04
    77 Broy./Diag. 0.10E+00    6.4     0.00009899      -632.5659305380 -1.03E-03
    78 Broy./Diag. 0.10E+00    7.5     0.00003164      -632.5667002179 -7.70E-04
    79 Broy./Diag. 0.10E+00    6.4     0.00002762      -632.5672432122 -5.43E-04
    80 Broy./Diag. 0.10E+00    7.3     0.00003531      -632.5676839855 -4.41E-04
    81 Broy./Diag. 0.10E+00    6.7     0.00003585      -632.5684311475 -7.47E-04
    82 Broy./Diag. 0.10E+00    7.5     0.00003664      -632.5690434375 -6.12E-04
    83 Broy./Diag. 0.10E+00    7.4     0.00002017      -632.5694569383 -4.14E-04
    84 Broy./Diag. 0.10E+00    7.5     0.00001840      -632.5695230871 -6.61E-05
    85 Broy./Diag. 0.10E+00    7.5     0.00001507      -632.5693643481  1.59E-04
    86 Broy./Diag. 0.10E+00    7.5     0.00000790      -632.5692086431  1.56E-04
    87 Broy./Diag. 0.10E+00    7.7     0.00000847      -632.5691389246  6.97E-05
    88 Broy./Diag. 0.10E+00    7.5     0.00000902      -632.5690624321  7.65E-05
    89 Broy./Diag. 0.10E+00    7.9     0.00001487      -632.5690446656  1.78E-05
    90 Broy./Diag. 0.10E+00    7.6     0.00000823      -632.5690610290 -1.64E-05
    91 Broy./Diag. 0.10E+00    7.9     0.00000632      -632.5690969733 -3.59E-05
    92 Broy./Diag. 0.10E+00    7.5     0.00000613      -632.5691264420 -2.95E-05
    93 Broy./Diag. 0.10E+00    7.8     0.00000566      -632.5691374524 -1.10E-05
    94 Broy./Diag. 0.10E+00    7.3     0.00000645      -632.5691692423 -3.18E-05
    95 Broy./Diag. 0.10E+00    8.0     0.00000484      -632.5692340893 -6.48E-05
    96 Broy./Diag. 0.10E+00    7.4     0.00000697      -632.5693524878 -1.18E-04
    97 Broy./Diag. 0.10E+00    8.2     0.00000591      -632.5694837498 -1.31E-04
    98 Broy./Diag. 0.10E+00    7.3     0.00000458      -632.5695773662 -9.36E-05
    99 Broy./Diag. 0.10E+00    8.2     0.00000336      -632.5696427589 -6.54E-05
   100 Broy./Diag. 0.10E+00    7.2     0.00000817      -632.5697067665 -6.40E-05
   101 Broy./Diag. 0.10E+00    8.3     0.00000376      -632.5697345819 -2.78E-05
   102 Broy./Diag. 0.10E+00    7.0     0.00000347      -632.5697413095 -6.73E-06
   103 Broy./Diag. 0.10E+00    8.3     0.00000336      -632.5697435951 -2.29E-06
   104 Broy./Diag. 0.10E+00    6.9     0.00000351      -632.5697366465  6.95E-06
   105 Broy./Diag. 0.10E+00    8.4     0.00000519      -632.5697325190  4.13E-06
   106 Broy./Diag. 0.10E+00    6.9     0.00000269      -632.5697361140 -3.59E-06
   107 Broy./Diag. 0.10E+00    8.1     0.00000371      -632.5697491391 -1.30E-05
   108 Broy./Diag. 0.10E+00    6.8     0.00000325      -632.5697584524 -9.31E-06
   109 Broy./Diag. 0.10E+00    7.8     0.00000576      -632.5697640080 -5.56E-06
   110 Broy./Diag. 0.10E+00    7.1     0.00000469      -632.5697737255 -9.72E-06
   111 Broy./Diag. 0.10E+00    7.8     0.00000288      -632.5697792489 -5.52E-06
   112 Broy./Diag. 0.10E+00    7.2     0.00000269      -632.5697790505  1.98E-07
   113 Broy./Diag. 0.10E+00    7.8     0.00000315      -632.5697754559  3.59E-06
   114 Broy./Diag. 0.10E+00    7.2     0.00000169      -632.5697733323  2.12E-06
   115 Broy./Diag. 0.10E+00    7.9     0.00000309      -632.5697728541  4.78E-07
   116 Broy./Diag. 0.10E+00    7.0     0.00000415      -632.5697733538 -5.00E-07
   117 Broy./Diag. 0.10E+00    8.0     0.00000242      -632.5697720706  1.28E-06
   118 Broy./Diag. 0.10E+00    7.0     0.00000116      -632.5697728462 -7.76E-07
   119 Broy./Diag. 0.10E+00    8.3     0.00000178      -632.5697709389  1.91E-06
   120 Broy./Diag. 0.10E+00    6.9     0.00000232      -632.5697693023  1.64E-06
   121 Broy./Diag. 0.10E+00    8.5     0.00000283      -632.5697697262 -4.24E-07
   122 Broy./Diag. 0.10E+00    6.9     0.00000271      -632.5697701112 -3.85E-07
   123 Broy./Diag. 0.10E+00    8.2     0.00000501      -632.5697692709  8.40E-07
   124 Broy./Diag. 0.10E+00    6.8     0.00000507      -632.5697693782 -1.07E-07
   125 Broy./Diag. 0.10E+00    8.4     0.00000130      -632.5697676177  1.76E-06
   126 Broy./Diag. 0.10E+00    6.9     0.00000152      -632.5697673350  2.83E-07
   127 Broy./Diag. 0.10E+00    8.3     0.00000300      -632.5697663142  1.02E-06
   128 Broy./Diag. 0.10E+00    6.8     0.00000364      -632.5697652089  1.11E-06
   129 Broy./Diag. 0.10E+00    8.2     0.00000129      -632.5697647151  4.94E-07
   130 Broy./Diag. 0.10E+00    6.9     0.00000258      -632.5697645887  1.26E-07
   131 Broy./Diag. 0.10E+00    7.1     0.00000192      -632.5697636749  9.14E-07
   132 Broy./Diag. 0.10E+00    8.0     0.00000123      -632.5697631842  4.91E-07
   133 Broy./Diag. 0.10E+00    6.9     0.00000143      -632.5697629546  2.30E-07
   134 Broy./Diag. 0.10E+00    8.2     0.00000250      -632.5697628196  1.35E-07
-------------------------------------------------------
Primary job  terminated normally, but 1 process returned
a non-zero exit code. Per user-direction, the job has been aborted.
-------------------------------------------------------
