 DBCSR| CPU Multiplication driver                                           BLAS (U)
 DBCSR| Multrec recursion limit                                              512 (U)
 DBCSR| Multiplication stack size                                           1000 (D)
 DBCSR| Maximum elements for images                                    UNLIMITED (U)
 DBCSR| Multiplicative factor virtual images                                   1 (U)
 DBCSR| Use multiplication densification                                       T (D)
 DBCSR| Multiplication size stacks                                             3 (U)
 DBCSR| Use memory pool for CPU allocation                                     F (U)
 DBCSR| Number of 3D layers                                               SINGLE (U)
 DBCSR| Use MPI memory allocation                                              F (U)
 DBCSR| Use RMA algorithm                                                      F (U)
 DBCSR| Use Communication thread                                               T (U)
 DBCSR| Communication thread load                                             87 (D)
 DBCSR| MPI: My process id                                                     0
 DBCSR| MPI: Number of processes                                              16
 DBCSR| OMP: Current number of threads                                         1
 DBCSR| OMP: Max number of threads                                             1
 DBCSR| Split modifier for TAS multiplication algorithm                  1.0E+00 (U)


  **** **** ******  **  PROGRAM STARTED AT               2025-07-10 15:55:17.361
 ***** ** ***  *** **   PROGRAM STARTED ON                            sebnode122
 **    ****   ******    PROGRAM STARTED BY                                luehrs
 ***** **    ** ** **   PROGRAM PROCESS ID                                627656
  **** **  *******  **  PROGRAM STARTED IN /home/luehrs/PhD/Sodium_batteries/Sod
                                           ium-graphene-edge/Zig_zag_3/No_hydrog
                                           en

 CP2K| version string:                                       CP2K version 2023.1
 CP2K| source code revision number:                                  git:b888bd8
 CP2K| cp2kflags: omp libint fftw3 libxc elpa parallel scalapack spglib         
 CP2K| is freely available from                            https://www.cp2k.org/
 CP2K| Program compiled at                          Tue Jan 10 19:52:03 UTC 2023
 CP2K| Program compiled on                                            x86-ubc-01
 CP2K| Program compiled for                                Linux-x86_64-gfortran
 CP2K| Data directory path                                       /usr/share/cp2k
 CP2K| Input file name                                         input.zig-zag.inp

 GLOBAL| Force Environment number                                              1
 GLOBAL| Basis set file name                                      ./BASIS_MOLOPT
 GLOBAL| Potential file name                                    ./GTH_POTENTIALS
 GLOBAL| MM Potential file name                                     MM_POTENTIAL
 GLOBAL| Coordinate file name           graphene_no_hydrogen_zig-zag_PBE_relaxed
 GLOBAL| Method name                                                        CP2K
 GLOBAL| Project name                                  graphene_zig_zag_BSSE_PBE
 GLOBAL| Run type                                                           BSSE
 GLOBAL| FFT library                                                       FFTW3
 GLOBAL| Diagonalization library                                            ELPA
 GLOBAL| DGEMM library                                                      BLAS
 GLOBAL| Minimum number of eigenvectors for ELPA usage                        16
 GLOBAL| Orthonormality check for eigenvectors                          DISABLED
 GLOBAL| Matrix multiplication library                                 ScaLAPACK
 GLOBAL| All-to-all communication in single precision                          F
 GLOBAL| FFTs using library dependent lengths                                  F
 GLOBAL| Grid backend                                                       AUTO
 GLOBAL| Global print level                                                  LOW
 GLOBAL| MPI I/O enabled                                                       T
 GLOBAL| Total number of message passing processes                            16
 GLOBAL| Number of threads for this process                                    1
 GLOBAL| This output is from process                                           0
 GLOBAL| Stack size for threads created by OpenMP (OMP_STACKSIZE)        default
 GLOBAL| CPU model name                 Intel(R) Xeon(R) Gold 6144 CPU @ 3.50GHz

 MEMORY| system memory details [Kb]
 MEMORY|                        rank 0           min           max       average
 MEMORY| MemTotal             65585092      65585092      65585092      65585092
 MEMORY| MemFree              61767896      61767896      61767896      61767896
 MEMORY| Buffers                450376        450376        450376        450376
 MEMORY| Cached                1376684       1376684       1376684       1376684
 MEMORY| Slab                   278456        278456        278456        278456
 MEMORY| SReclaimable           137160        137160        137160        137160
 MEMORY| MemLikelyFree        63732116      63732116      63732116      63732116


 GENERATE|  Preliminary Number of Bonds generated:                             0
 GENERATE|  Achieved consistency in connectivity generation.

 *******************************************************************************
 *******************************************************************************
 **                                                                           **
 **     #####                         ##              ##                      **
 **    ##   ##            ##          ##              ##                      **
 **   ##     ##                       ##            ######                    **
 **   ##     ##  ##   ##  ##   #####  ##  ##   ####   ##    #####    #####    **
 **   ##     ##  ##   ##  ##  ##      ## ##   ##      ##   ##   ##  ##   ##   **
 **   ##  ## ##  ##   ##  ##  ##      ####     ###    ##   ######   ######    **
 **    ##  ###   ##   ##  ##  ##      ## ##      ##   ##   ##       ##        **
 **     #######   #####   ##   #####  ##  ##  ####    ##    #####   ##        **
 **           ##                                                    ##        **
 **                                                                           **
 **                                                ... make the atoms dance   **
 **                                                                           **
 **            Copyright (C) by CP2K developers group (2000-2022)             **
 **                      J. Chem. Phys. 152, 194103 (2020)                    **
 **                                                                           **
 *******************************************************************************


 TOTAL NUMBERS AND MAXIMUM NUMBERS

  Total number of            - Atomic kinds:                                   2
                             - Atoms:                                        113
                             - Shell sets:                                   113
                             - Shells:                                       565
                             - Primitive Cartesian functions:                567
                             - Cartesian basis functions:                   1577
                             - Spherical basis functions:                   1465

  Maximum angular momentum of- Orbital basis functions:                        2
                             - Local part of the GTH pseudopotential:          2
                             - Non-local part of the GTH pseudopotential:      1


 SCF PARAMETERS         Density guess:                                    ATOMIC
                        --------------------------------------------------------
                        max_scf:                                             400
                        max_scf_history:                                       0
                        max_diis:                                              4
                        --------------------------------------------------------
                        eps_scf:                                        3.00E-07
                        eps_scf_history:                                0.00E+00
                        eps_diis:                                       1.00E-01
                        eps_eigval:                                     1.00E-05
                        --------------------------------------------------------
                        level_shift [a.u.]:                             0.000000
                        added MOs                                       100  100
                        --------------------------------------------------------
                        Mixing method:                            BROYDEN_MIXING
                                                charge density mixing in g-space
                        --------------------------------------------------------
                        Smear method:                                FERMI_DIRAC
                        Electronic temperature [K]:                        300.0
                        Electronic temperature [a.u.]:                  9.50E-04
                        Accuracy threshold:                             1.00E-10
                        --------------------------------------------------------
                        Outer loop SCF in use 
                        No variables optimised in outer loop
                        eps_scf                                         1.00E-06
                        max_scf                                              100
                        DIIS optimization
                        DIIS buffer length                                     3
                        step_size                                       5.00E-01

 -------------------------------------------------------------------------------
 -                                                                             -
 -  BSSE CALCULATION         FRAGMENT CONF: 10        FRAGMENT SUBCONF: 10     -
 -                           CHARGE =     0           MULTIPLICITY =     0     -
 -                                                                             -
 -                 ATOM INDEX                              ATOM NAME           -
 -                 ----------                              ---------           -
 -                      1                                   C                  -
 -                      2                                   C                  -
 -                      3                                   C                  -
 -                      4                                   C                  -
 -                      5                                   C                  -
 -                      6                                   C                  -
 -                      7                                   C                  -
 -                      8                                   C                  -
 -                      9                                   C                  -
 -                     10                                   C                  -
 -                     11                                   C                  -
 -                     12                                   C                  -
 -                     13                                   C                  -
 -                     14                                   C                  -
 -                     15                                   C                  -
 -                     16                                   C                  -
 -                     17                                   C                  -
 -                     18                                   C                  -
 -                     19                                   C                  -
 -                     20                                   C                  -
 -                     21                                   C                  -
 -                     22                                   C                  -
 -                     23                                   C                  -
 -                     24                                   C                  -
 -                     25                                   C                  -
 -                     26                                   C                  -
 -                     27                                   C                  -
 -                     28                                   C                  -
 -                     29                                   C                  -
 -                     30                                   C                  -
 -                     31                                   C                  -
 -                     32                                   C                  -
 -                     33                                   C                  -
 -                     34                                   C                  -
 -                     35                                   C                  -
 -                     36                                   C                  -
 -                     37                                   C                  -
 -                     38                                   C                  -
 -                     39                                   C                  -
 -                     40                                   C                  -
 -                     41                                   C                  -
 -                     42                                   C                  -
 -                     43                                   C                  -
 -                     44                                   C                  -
 -                     45                                   C                  -
 -                     46                                   C                  -
 -                     47                                   C                  -
 -                     48                                   C                  -
 -                     49                                   C                  -
 -                     50                                   C                  -
 -                     51                                   C                  -
 -                     52                                   C                  -
 -                     53                                   C                  -
 -                     54                                   C                  -
 -                     55                                   C                  -
 -                     56                                   C                  -
 -                     57                                   C                  -
 -                     58                                   C                  -
 -                     59                                   C                  -
 -                     60                                   C                  -
 -                     61                                   C                  -
 -                     62                                   C                  -
 -                     63                                   C                  -
 -                     64                                   C                  -
 -                     65                                   C                  -
 -                     66                                   C                  -
 -                     67                                   C                  -
 -                     68                                   C                  -
 -                     69                                   C                  -
 -                     70                                   C                  -
 -                     71                                   C                  -
 -                     72                                   C                  -
 -                     73                                   C                  -
 -                     74                                   C                  -
 -                     75                                   C                  -
 -                     76                                   C                  -
 -                     77                                   C                  -
 -                     78                                   C                  -
 -                     79                                   C                  -
 -                     80                                   C                  -
 -                     81                                   C                  -
 -                     82                                   C                  -
 -                     83                                   C                  -
 -                     84                                   C                  -
 -                     85                                   C                  -
 -                     86                                   C                  -
 -                     87                                   C                  -
 -                     88                                   C                  -
 -                     89                                   C                  -
 -                     90                                   C                  -
 -                     91                                   C                  -
 -                     92                                   C                  -
 -                     93                                   C                  -
 -                     94                                   C                  -
 -                     95                                   C                  -
 -                     96                                   C                  -
 -                     97                                   C                  -
 -                     98                                   C                  -
 -                     99                                   C                  -
 -                    100                                   C                  -
 -                    101                                   C                  -
 -                    102                                   C                  -
 -                    103                                   C                  -
 -                    104                                   C                  -
 -                    105                                   C                  -
 -                    106                                   C                  -
 -                    107                                   C                  -
 -                    108                                   C                  -
 -                    109                                   C                  -
 -                    110                                   C                  -
 -                    111                                   C                  -
 -                    112                                   C                  -
 -------------------------------------------------------------------------------

 *******************************************************************************
 *******************************************************************************
 **                                                                           **
 **     #####                         ##              ##                      **
 **    ##   ##            ##          ##              ##                      **
 **   ##     ##                       ##            ######                    **
 **   ##     ##  ##   ##  ##   #####  ##  ##   ####   ##    #####    #####    **
 **   ##     ##  ##   ##  ##  ##      ## ##   ##      ##   ##   ##  ##   ##   **
 **   ##  ## ##  ##   ##  ##  ##      ####     ###    ##   ######   ######    **
 **    ##  ###   ##   ##  ##  ##      ## ##      ##   ##   ##       ##        **
 **     #######   #####   ##   #####  ##  ##  ####    ##    #####   ##        **
 **           ##                                                    ##        **
 **                                                                           **
 **                                                ... make the atoms dance   **
 **                                                                           **
 **            Copyright (C) by CP2K developers group (2000-2022)             **
 **                      J. Chem. Phys. 152, 194103 (2020)                    **
 **                                                                           **
 *******************************************************************************


 TOTAL NUMBERS AND MAXIMUM NUMBERS

  Total number of            - Atomic kinds:                                   1
                             - Atoms:                                        112
                             - Shell sets:                                   112
                             - Shells:                                       560
                             - Primitive Cartesian functions:                560
                             - Cartesian basis functions:                   1568
                             - Spherical basis functions:                   1456

  Maximum angular momentum of- Orbital basis functions:                        2
                             - Local part of the GTH pseudopotential:          2
                             - Non-local part of the GTH pseudopotential:      0


 SCF PARAMETERS         Density guess:                                    ATOMIC
                        --------------------------------------------------------
                        max_scf:                                             400
                        max_scf_history:                                       0
                        max_diis:                                              4
                        --------------------------------------------------------
                        eps_scf:                                        3.00E-07
                        eps_scf_history:                                0.00E+00
                        eps_diis:                                       1.00E-01
                        eps_eigval:                                     1.00E-05
                        --------------------------------------------------------
                        level_shift [a.u.]:                             0.000000
                        added MOs                                       100  100
                        --------------------------------------------------------
                        Mixing method:                            BROYDEN_MIXING
                                                charge density mixing in g-space
                        --------------------------------------------------------
                        Smear method:                                FERMI_DIRAC
                        Electronic temperature [K]:                        300.0
                        Electronic temperature [a.u.]:                  9.50E-04
                        Accuracy threshold:                             1.00E-10
                        --------------------------------------------------------
                        Outer loop SCF in use 
                        No variables optimised in outer loop
                        eps_scf                                         1.00E-06
                        max_scf                                              100
                        DIIS optimization
                        DIIS buffer length                                     3
                        step_size                                       5.00E-01

 Spin 1

 Number of electrons:                                                        224
 Number of occupied orbitals:                                                224
 Number of molecular orbitals:                                               324

 Spin 2

 Number of electrons:                                                        224
 Number of occupied orbitals:                                                224
 Number of molecular orbitals:                                               324

 Number of orbital functions:                                               1456
 Number of independent orbital functions:                                   1456

 Extrapolation method: initial_guess


 SCF WAVEFUNCTION OPTIMIZATION

  Step     Update method      Time    Convergence         Total energy    Change
  ------------------------------------------------------------------------------
     1 NoMix/Diag. 0.10E+00    3.8     0.46309973      -631.5188450465 -6.32E+02
     2 Broy./Diag. 0.10E+00    6.4     0.08790891      -610.2244821769  2.13E+01
     3 Broy./Diag. 0.10E+00    6.6     0.13984526      -617.2788477746 -7.05E+00
     4 Broy./Diag. 0.10E+00    6.7     0.34656325      -629.5798831400 -1.23E+01
     5 Broy./Diag. 0.10E+00    6.7     0.03041312      -633.7427035665 -4.16E+00
     6 Broy./Diag. 0.10E+00    6.8     0.46533647      -634.2233204943 -4.81E-01
     7 Broy./Diag. 0.10E+00    7.0     0.05801798      -634.7201040425 -4.97E-01
     8 Broy./Diag. 0.10E+00    7.1     0.05488493      -634.8028829974 -8.28E-02
     9 Broy./Diag. 0.10E+00    7.3     0.14830568      -634.9886412167 -1.86E-01
    10 Broy./Diag. 0.10E+00    7.4     0.17389244      -635.2229841857 -2.34E-01
    11 Broy./Diag. 0.10E+00    7.4     0.06688185      -635.3470064693 -1.24E-01
    12 Broy./Diag. 0.10E+00    7.4     0.01202534      -635.3594735514 -1.25E-02
    13 Broy./Diag. 0.10E+00    7.4     0.00874961      -635.4211539294 -6.17E-02
    14 Broy./Diag. 0.10E+00    7.4     0.00862629      -635.5198616835 -9.87E-02
    15 Broy./Diag. 0.10E+00    7.4     0.03857949      -635.6357012158 -1.16E-01
    16 Broy./Diag. 0.10E+00    7.4     0.02026917      -635.7563763036 -1.21E-01
    17 Broy./Diag. 0.10E+00    7.4     0.01715735      -635.8784212785 -1.22E-01
    18 Broy./Diag. 0.10E+00    7.4     0.00748004      -635.9114971120 -3.31E-02
    19 Broy./Diag. 0.10E+00    7.4     0.00306811      -635.9177821392 -6.29E-03
    20 Broy./Diag. 0.10E+00    7.4     0.00672328      -635.9108091822  6.97E-03
    21 Broy./Diag. 0.10E+00    7.4     0.00306115      -635.9031827415  7.63E-03
    22 Broy./Diag. 0.10E+00    7.4     0.00324639      -635.8730510193  3.01E-02
    23 Broy./Diag. 0.10E+00    7.4     0.00158131      -635.8575333789  1.55E-02
    24 Broy./Diag. 0.10E+00    7.4     0.00080211      -635.8670219730 -9.49E-03
    25 Broy./Diag. 0.10E+00    7.4     0.00095880      -635.8890048672 -2.20E-02
    26 Broy./Diag. 0.10E+00    7.4     0.00028436      -635.9132173915 -2.42E-02
    27 Broy./Diag. 0.10E+00    7.4     0.00008336      -635.9152312634 -2.01E-03
    28 Broy./Diag. 0.10E+00    7.4     0.00010630      -635.9071265247  8.10E-03
    29 Broy./Diag. 0.10E+00    7.4     0.00022479      -635.9083890712 -1.26E-03
    30 Broy./Diag. 0.10E+00    7.4     0.00027226      -635.9191895982 -1.08E-02
    31 Broy./Diag. 0.10E+00    7.4     0.00019165      -635.9266622696 -7.47E-03
    32 Broy./Diag. 0.10E+00    7.4     0.00007803      -635.9258724146  7.90E-04
    33 Broy./Diag. 0.10E+00    7.4     0.00009260      -635.9241976005  1.67E-03
    34 Broy./Diag. 0.10E+00    7.4     0.00007823      -635.9261263701 -1.93E-03
    35 Broy./Diag. 0.10E+00    7.4     0.00005772      -635.9290356787 -2.91E-03
    36 Broy./Diag. 0.10E+00    7.4     0.00004596      -635.9315260909 -2.49E-03
    37 Broy./Diag. 0.10E+00    7.4     0.00007081      -635.9317364744 -2.10E-04
    38 Broy./Diag. 0.10E+00    7.4     0.00004055      -635.9313133120  4.23E-04
    39 Broy./Diag. 0.10E+00    7.4     0.00004338      -635.9316804277 -3.67E-04
    40 Broy./Diag. 0.10E+00    7.5     0.00011757      -635.9332430992 -1.56E-03
    41 Broy./Diag. 0.10E+00    7.5     0.00004632      -635.9343997356 -1.16E-03
    42 Broy./Diag. 0.10E+00    7.5     0.00002662      -635.9341356528  2.64E-04
    43 Broy./Diag. 0.10E+00    7.5     0.00003727      -635.9334956221  6.40E-04
    44 Broy./Diag. 0.10E+00    7.5     0.00003217      -635.9335870509 -9.14E-05
    45 Broy./Diag. 0.10E+00    7.5     0.00006874      -635.9340238608 -4.37E-04
    46 Broy./Diag. 0.10E+00    7.5     0.00004227      -635.9344656038 -4.42E-04
    47 Broy./Diag. 0.10E+00    7.5     0.00002019      -635.9344800523 -1.44E-05
    48 Broy./Diag. 0.10E+00    7.5     0.00002312      -635.9342176305  2.62E-04
    49 Broy./Diag. 0.10E+00    7.5     0.00003573      -635.9341762837  4.13E-05
    50 Broy./Diag. 0.10E+00    7.5     0.00002562      -635.9343596889 -1.83E-04
    51 Broy./Diag. 0.10E+00    7.6     0.00002621      -635.9346349660 -2.75E-04
    52 Broy./Diag. 0.10E+00    7.6     0.00005705      -635.9346905872 -5.56E-05
    53 Broy./Diag. 0.10E+00    7.6     0.00002032      -635.9345596428  1.31E-04
    54 Broy./Diag. 0.10E+00    7.6     0.00002337      -635.9344800398  7.96E-05
    55 Broy./Diag. 0.10E+00    7.6     0.00003318      -635.9346064144 -1.26E-04
    56 Broy./Diag. 0.10E+00    7.6     0.00002050      -635.9347672821 -1.61E-04
    57 Broy./Diag. 0.10E+00    7.6     0.00002615      -635.9347974328 -3.02E-05
    58 Broy./Diag. 0.10E+00    7.6     0.00001375      -635.9347108944  8.65E-05
    59 Broy./Diag. 0.10E+00    7.6     0.00001899      -635.9345466163  1.64E-04
    60 Broy./Diag. 0.10E+00    7.6     0.00000971      -635.9344538845  9.27E-05
    61 Broy./Diag. 0.10E+00    7.6     0.00001765      -635.9344479543  5.93E-06
    62 Broy./Diag. 0.10E+00    7.6     0.00004225      -635.9344740114 -2.61E-05
    63 Broy./Diag. 0.10E+00    7.6     0.00004402      -635.9344369293  3.71E-05
    64 Broy./Diag. 0.10E+00    7.6     0.00007161      -635.9344485556 -1.16E-05
    65 Broy./Diag. 0.10E+00    7.6     0.00001632      -635.9344087136  3.98E-05
    66 Broy./Diag. 0.10E+00    7.6     0.00001465      -635.9344016214  7.09E-06
    67 Broy./Diag. 0.10E+00    7.6     0.00005389      -635.9344189405 -1.73E-05
    68 Broy./Diag. 0.10E+00    7.6     0.00003212      -635.9344457067 -2.68E-05
    69 Broy./Diag. 0.10E+00    7.6     0.00001875      -635.9344442863  1.42E-06
    70 Broy./Diag. 0.10E+00    7.6     0.00002103      -635.9344373157  6.97E-06
    71 Broy./Diag. 0.10E+00    7.6     0.00001788      -635.9344281693  9.15E-06
    72 Broy./Diag. 0.10E+00    7.6     0.00001173      -635.9344212049  6.96E-06
    73 Broy./Diag. 0.10E+00    7.6     0.00001871      -635.9343906811  3.05E-05
    74 Broy./Diag. 0.10E+00    7.6     0.00002122      -635.9343949031 -4.22E-06
    75 Broy./Diag. 0.10E+00    7.6     0.00000709      -635.9343817346  1.32E-05
    76 Broy./Diag. 0.10E+00    7.6     0.00002247      -635.9343649520  1.68E-05
    77 Broy./Diag. 0.10E+00    7.6     0.00001367      -635.9343613778  3.57E-06
    78 Broy./Diag. 0.10E+00    7.6     0.00002584      -635.9343659086 -4.53E-06
    79 Broy./Diag. 0.10E+00    7.6     0.00000789      -635.9343662814 -3.73E-07
    80 Broy./Diag. 0.10E+00    7.6     0.00000156      -635.9343690619 -2.78E-06
    81 Broy./Diag. 0.10E+00    7.6     0.00000547      -635.9343694131 -3.51E-07
    82 Broy./Diag. 0.10E+00    7.6     0.00000916      -635.9343659171  3.50E-06
    83 Broy./Diag. 0.10E+00    7.6     0.00000283      -635.9343646583  1.26E-06
    84 Broy./Diag. 0.10E+00    7.6     0.00001290      -635.9343539894  1.07E-05
    85 Broy./Diag. 0.10E+00    7.6     0.00001782      -635.9343607704 -6.78E-06
    86 Broy./Diag. 0.10E+00    7.6     0.00000753      -635.9343584227  2.35E-06
    87 Broy./Diag. 0.10E+00    7.6     0.00001447      -635.9343526267  5.80E-06
    88 Broy./Diag. 0.10E+00    7.6     0.00001971      -635.9343543856 -1.76E-06
    89 Broy./Diag. 0.10E+00    7.6     0.00000403      -635.9343528252  1.56E-06
    90 Broy./Diag. 0.10E+00    7.6     0.00000465      -635.9343535305 -7.05E-07
    91 Broy./Diag. 0.10E+00    7.6     0.00000687      -635.9343551281 -1.60E-06
    92 Broy./Diag. 0.10E+00    7.6     0.00001409      -635.9343566199 -1.49E-06
    93 Broy./Diag. 0.10E+00    7.6     0.00001647      -635.9343561496  4.70E-07
    94 Broy./Diag. 0.10E+00    7.6     0.00001357      -635.9343575480 -1.40E-06
    95 Broy./Diag. 0.10E+00    7.6     0.00001783      -635.9343555041  2.04E-06
    96 Broy./Diag. 0.10E+00    7.6     0.00000811      -635.9343580671 -2.56E-06
    97 Broy./Diag. 0.10E+00    7.6     0.00003799      -635.9343555883  2.48E-06
    98 Broy./Diag. 0.10E+00    7.6     0.00002735      -635.9343496053  5.98E-06
    99 Broy./Diag. 0.10E+00    7.6     0.00002011      -635.9343469765  2.63E-06
   100 Broy./Diag. 0.10E+00    7.6     0.00001040      -635.9343537056 -6.73E-06
   101 Broy./Diag. 0.10E+00    7.6     0.00000401      -635.9343513969  2.31E-06
   102 Broy./Diag. 0.10E+00    7.6     0.00002058      -635.9343508893  5.08E-07
   103 Broy./Diag. 0.10E+00    7.6     0.00001213      -635.9343495624  1.33E-06
   104 Broy./Diag. 0.10E+00    7.6     0.00001686      -635.9343485776  9.85E-07
   105 Broy./Diag. 0.10E+00    7.6     0.00001330      -635.9343476733  9.04E-07
   106 Broy./Diag. 0.10E+00    7.6     0.00001021      -635.9343494636 -1.79E-06
   107 Broy./Diag. 0.10E+00    7.6     0.00004394      -635.9343399292  9.53E-06
   108 Broy./Diag. 0.10E+00    7.6     0.00000769      -635.9343416294 -1.70E-06
   109 Broy./Diag. 0.10E+00    7.6     0.00001455      -635.9343417671 -1.38E-07
   110 Broy./Diag. 0.10E+00    7.6     0.00000688      -635.9343402096  1.56E-06
   111 Broy./Diag. 0.10E+00    7.6     0.00000668      -635.9343426582 -2.45E-06
   112 Broy./Diag. 0.10E+00    7.6     0.00000524      -635.9343393165  3.34E-06
   113 Broy./Diag. 0.10E+00    7.6     0.00000406      -635.9343393746 -5.81E-08
   114 Broy./Diag. 0.10E+00    7.6     0.00000621      -635.9343405614 -1.19E-06
   115 Broy./Diag. 0.10E+00    7.6     0.00000944      -635.9343410333 -4.72E-07
   116 Broy./Diag. 0.10E+00    7.6     0.00001472      -635.9343405787  4.55E-07
   117 Broy./Diag. 0.10E+00    7.6     0.00001481      -635.9343407167 -1.38E-07
   118 Broy./Diag. 0.10E+00    7.6     0.00001786      -635.9343362138  4.50E-06
   119 Broy./Diag. 0.10E+00    7.6     0.00001662      -635.9343410724 -4.86E-06
   120 Broy./Diag. 0.10E+00    7.6     0.00001147      -635.9343388342  2.24E-06
   121 Broy./Diag. 0.10E+00    7.6     0.00002731      -635.9343418580 -3.02E-06
   122 Broy./Diag. 0.10E+00    7.6     0.00001578      -635.9343369271  4.93E-06
   123 Broy./Diag. 0.10E+00    7.6     0.00002287      -635.9343283931  8.53E-06
   124 Broy./Diag. 0.10E+00    7.6     0.00001591      -635.9343288063 -4.13E-07
   125 Broy./Diag. 0.10E+00    7.6     0.00001976      -635.9343275502  1.26E-06
   126 Broy./Diag. 0.10E+00    7.6     0.00003967      -635.9343212326  6.32E-06
   127 Broy./Diag. 0.10E+00    7.6     0.00001518      -635.9343203171  9.16E-07
   128 Broy./Diag. 0.10E+00    7.6     0.00001228      -635.9343187146  1.60E-06
   129 Broy./Diag. 0.10E+00    7.6     0.00000334      -635.9343198196 -1.11E-06
   130 Broy./Diag. 0.10E+00    7.6     0.00001176      -635.9343161821  3.64E-06
   131 Broy./Diag. 0.10E+00    7.6     0.00000249      -635.9343174039 -1.22E-06
   132 Broy./Diag. 0.10E+00    7.6     0.00001117      -635.9343142765  3.13E-06
   133 Broy./Diag. 0.10E+00    7.6     0.00002875      -635.9343217485 -7.47E-06
   134 Broy./Diag. 0.10E+00    7.6     0.00000905      -635.9343196101  2.14E-06
   135 Broy./Diag. 0.10E+00    7.6     0.00000516      -635.9343193710  2.39E-07
   136 Broy./Diag. 0.10E+00    7.6     0.00000795      -635.9343202291 -8.58E-07
   137 Broy./Diag. 0.10E+00    7.6     0.00001547      -635.9343209189 -6.90E-07
   138 Broy./Diag. 0.10E+00    7.6     0.00000441      -635.9343214024 -4.83E-07
   139 Broy./Diag. 0.10E+00    7.6     0.00000337      -635.9343205177  8.85E-07
   140 Broy./Diag. 0.10E+00    7.6     0.00001060      -635.9343140504  6.47E-06
   141 Broy./Diag. 0.10E+00    7.6     0.00001501      -635.9343136702  3.80E-07
   142 Broy./Diag. 0.10E+00    7.6     0.00002289      -635.9343159845 -2.31E-06
   143 Broy./Diag. 0.10E+00    7.6     0.00000980      -635.9343151643  8.20E-07
   144 Broy./Diag. 0.10E+00    7.6     0.00001533      -635.9343136900  1.47E-06
   145 Broy./Diag. 0.10E+00    7.6     0.00002250      -635.9343115997  2.09E-06
   146 Broy./Diag. 0.10E+00    7.6     0.00002022      -635.9343076118  3.99E-06
   147 Broy./Diag. 0.10E+00    7.6     0.00000699      -635.9343091487 -1.54E-06
   148 Broy./Diag. 0.10E+00    7.6     0.00000472      -635.9343087622  3.86E-07
   149 Broy./Diag. 0.10E+00    7.6     0.00000137      -635.9343076696  1.09E-06
   150 Broy./Diag. 0.10E+00    7.6     0.00000294      -635.9343060295  1.64E-06
   151 Broy./Diag. 0.10E+00    7.6     0.00000419      -635.9343056943  3.35E-07
   152 Broy./Diag. 0.10E+00    7.6     0.00000430      -635.9343049810  7.13E-07
   153 Broy./Diag. 0.10E+00    7.6     0.00000057      -635.9343049993 -1.83E-08
   154 Broy./Diag. 0.10E+00    7.6     0.00000884      -635.9343040001  9.99E-07
   155 Broy./Diag. 0.10E+00    7.6     0.00001137      -635.9343043483 -3.48E-07
   156 Broy./Diag. 0.10E+00    7.6     0.00000923      -635.9343031989  1.15E-06
   157 Broy./Diag. 0.10E+00    7.6     0.00000487      -635.9343031037  9.52E-08
   158 Broy./Diag. 0.10E+00    7.6     0.00000984      -635.9343035707 -4.67E-07
   159 Broy./Diag. 0.10E+00    7.6     0.00002135      -635.9343014251  2.15E-06
   160 Broy./Diag. 0.10E+00    7.6     0.00000844      -635.9342997341  1.69E-06
   161 Broy./Diag. 0.10E+00    7.6     0.00003834      -635.9343066834 -6.95E-06
   162 Broy./Diag. 0.10E+00    7.6     0.00002875      -635.9342987137  7.97E-06
   163 Broy./Diag. 0.10E+00    7.6     0.00001402      -635.9342956718  3.04E-06
   164 Broy./Diag. 0.10E+00    7.6     0.00001434      -635.9342982546 -2.58E-06
   165 Broy./Diag. 0.10E+00    7.6     0.00000899      -635.9342986357 -3.81E-07
   166 Broy./Diag. 0.10E+00    7.6     0.00002214      -635.9342970431  1.59E-06
   167 Broy./Diag. 0.10E+00    7.6     0.00003257      -635.9342973550 -3.12E-07
   168 Broy./Diag. 0.10E+00    7.6     0.00000391      -635.9342966014  7.54E-07
   169 Broy./Diag. 0.10E+00    7.6     0.00002939      -635.9342969560 -3.55E-07
   170 Broy./Diag. 0.10E+00    7.6     0.00000743      -635.9342976469 -6.91E-07
   171 Broy./Diag. 0.10E+00    7.6     0.00004032      -635.9342923772  5.27E-06
   172 Broy./Diag. 0.10E+00    7.6     0.00000798      -635.9342943712 -1.99E-06
   173 Broy./Diag. 0.10E+00    7.6     0.00001312      -635.9342939473  4.24E-07
   174 Broy./Diag. 0.10E+00    7.6     0.00001716      -635.9342883788  5.57E-06
   175 Broy./Diag. 0.10E+00    7.6     0.00000808      -635.9342862836  2.10E-06
   176 Broy./Diag. 0.10E+00    7.6     0.00000911      -635.9342861470  1.37E-07
   177 Broy./Diag. 0.10E+00    7.6     0.00001807      -635.9342857609  3.86E-07
   178 Broy./Diag. 0.10E+00    7.6     0.00000843      -635.9342857285  3.25E-08
   179 Broy./Diag. 0.10E+00    7.6     0.00001836      -635.9342845722  1.16E-06
   180 Broy./Diag. 0.10E+00    7.6     0.00000546      -635.9342856498 -1.08E-06
   181 Broy./Diag. 0.10E+00    7.6     0.00000643      -635.9342852862  3.64E-07
   182 Broy./Diag. 0.10E+00    7.6     0.00000639      -635.9342849661  3.20E-07
   183 Broy./Diag. 0.10E+00    7.6     0.00001832      -635.9342854881 -5.22E-07
   184 Broy./Diag. 0.10E+00    7.6     0.00000585      -635.9342850493  4.39E-07
   185 Broy./Diag. 0.10E+00    7.6     0.00000986      -635.9342837107  1.34E-06
   186 Broy./Diag. 0.10E+00    7.6     0.00001344      -635.9342792218  4.49E-06
   187 Broy./Diag. 0.10E+00    7.6     0.00000519      -635.9342794308 -2.09E-07
   188 Broy./Diag. 0.10E+00    7.6     0.00000659      -635.9342791770  2.54E-07
   189 Broy./Diag. 0.10E+00    7.6     0.00001851      -635.9342786982  4.79E-07
   190 Broy./Diag. 0.10E+00    7.6     0.00001568      -635.9342767886  1.91E-06
   191 Broy./Diag. 0.10E+00    7.6     0.00000887      -635.9342782570 -1.47E-06
   192 Broy./Diag. 0.10E+00    7.6     0.00004661      -635.9342728039  5.45E-06
   193 Broy./Diag. 0.10E+00    7.6     0.00000588      -635.9342728656 -6.17E-08
   194 Broy./Diag. 0.10E+00    7.6     0.00001795      -635.9342735700 -7.04E-07
   195 Broy./Diag. 0.10E+00    7.6     0.00001809      -635.9342700277  3.54E-06
   196 Broy./Diag. 0.10E+00    7.6     0.00001243      -635.9342669663  3.06E-06
   197 Broy./Diag. 0.10E+00    7.6     0.00002967      -635.9342696746 -2.71E-06
   198 Broy./Diag. 0.10E+00    7.6     0.00000890      -635.9342699144 -2.40E-07
   199 Broy./Diag. 0.10E+00    7.6     0.00001430      -635.9342674711  2.44E-06
   200 Broy./Diag. 0.10E+00    7.6     0.00002454      -635.9342646044  2.87E-06
   201 Broy./Diag. 0.10E+00    7.6     0.00000070      -635.9342652516 -6.47E-07
   202 Broy./Diag. 0.10E+00    7.6     0.00003214      -635.9342653997 -1.48E-07
   203 Broy./Diag. 0.10E+00    7.6     0.00001540      -635.9342631755  2.22E-06
   204 Broy./Diag. 0.10E+00    7.6     0.00000445      -635.9342641844 -1.01E-06
   205 Broy./Diag. 0.10E+00    7.6     0.00001736      -635.9342621878  2.00E-06
   206 Broy./Diag. 0.10E+00    7.6     0.00000573      -635.9342618054  3.82E-07
   207 Broy./Diag. 0.10E+00    7.6     0.00001650      -635.9342626324 -8.27E-07
   208 Broy./Diag. 0.10E+00    7.6     0.00000463      -635.9342624738  1.59E-07
   209 Broy./Diag. 0.10E+00    7.6     0.00000256      -635.9342623478  1.26E-07
   210 Broy./Diag. 0.10E+00    7.6     0.00000448      -635.9342618176  5.30E-07
   211 Broy./Diag. 0.10E+00    7.6     0.00000378      -635.9342610268  7.91E-07
   212 Broy./Diag. 0.10E+00    7.6     0.00000815      -635.9342619209 -8.94E-07
   213 Broy./Diag. 0.10E+00    7.6     0.00000966      -635.9342594005  2.52E-06
   214 Broy./Diag. 0.10E+00    7.6     0.00000130      -635.9342598227 -4.22E-07
   215 Broy./Diag. 0.10E+00    7.6     0.00000183      -635.9342600216 -1.99E-07
   216 Broy./Diag. 0.10E+00    7.6     0.00000908      -635.9342593650  6.57E-07
   217 Broy./Diag. 0.10E+00    7.6     0.00000283      -635.9342589190  4.46E-07
   218 Broy./Diag. 0.10E+00    7.6     0.00001567      -635.9342574445  1.47E-06
   219 Broy./Diag. 0.10E+00    7.6     0.00000530      -635.9342561214  1.32E-06
   220 Broy./Diag. 0.10E+00    7.6     0.00000694      -635.9342557580  3.63E-07
   221 Broy./Diag. 0.10E+00    7.6     0.00001324      -635.9342551627  5.95E-07
   222 Broy./Diag. 0.10E+00    7.6     0.00000229      -635.9342544293  7.33E-07
   223 Broy./Diag. 0.10E+00    7.6     0.00000458      -635.9342540116  4.18E-07
   224 Broy./Diag. 0.10E+00    7.6     0.00000317      -635.9342537713  2.40E-07
   225 Broy./Diag. 0.10E+00    7.6     0.00001106      -635.9342535805  1.91E-07
   226 Broy./Diag. 0.10E+00    7.6     0.00000890      -635.9342540248 -4.44E-07
   227 Broy./Diag. 0.10E+00    7.6     0.00001064      -635.9342540048  2.00E-08
   228 Broy./Diag. 0.10E+00    7.6     0.00000198      -635.9342539347  7.01E-08
   229 Broy./Diag. 0.10E+00    7.6     0.00000529      -635.9342534769  4.58E-07
   230 Broy./Diag. 0.10E+00    7.6     0.00000596      -635.9342533915  8.54E-08
   231 Broy./Diag. 0.10E+00    7.6     0.00000860      -635.9342527199  6.72E-07
   232 Broy./Diag. 0.10E+00    7.6     0.00000464      -635.9342527741 -5.42E-08
   233 Broy./Diag. 0.10E+00    7.6     0.00001469      -635.9342518141  9.60E-07
   234 Broy./Diag. 0.10E+00    7.6     0.00001027      -635.9342499009  1.91E-06
   235 Broy./Diag. 0.10E+00    7.6     0.00000736      -635.9342489575  9.43E-07
   236 Broy./Diag. 0.10E+00    7.6     0.00000750      -635.9342492031 -2.46E-07
   237 Broy./Diag. 0.10E+00    7.6     0.00002348      -635.9342473608  1.84E-06
   238 Broy./Diag. 0.10E+00    7.6     0.00000436      -635.9342478932 -5.32E-07
   239 Broy./Diag. 0.10E+00    7.6     0.00000922      -635.9342480804 -1.87E-07
   240 Broy./Diag. 0.10E+00    7.6     0.00000444      -635.9342486485 -5.68E-07
   241 Broy./Diag. 0.10E+00    7.6     0.00000251      -635.9342488309 -1.82E-07
   242 Broy./Diag. 0.10E+00    7.6     0.00000665      -635.9342484857  3.45E-07
   243 Broy./Diag. 0.10E+00    7.6     0.00001845      -635.9342473556  1.13E-06
   244 Broy./Diag. 0.10E+00    7.6     0.00000916      -635.9342462663  1.09E-06
   245 Broy./Diag. 0.10E+00    7.6     0.00000273      -635.9342462455  2.08E-08
   246 Broy./Diag. 0.10E+00    7.6     0.00000368      -635.9342468584 -6.13E-07
   247 Broy./Diag. 0.10E+00    7.6     0.00000590      -635.9342463196  5.39E-07
   248 Broy./Diag. 0.10E+00    7.6     0.00000215      -635.9342467593 -4.40E-07
   249 Broy./Diag. 0.10E+00    7.6     0.00001020      -635.9342468182 -5.88E-08
   250 Broy./Diag. 0.10E+00    7.6     0.00000080      -635.9342463926  4.26E-07
   251 Broy./Diag. 0.10E+00    7.6     0.00000173      -635.9342465847 -1.92E-07
   252 Broy./Diag. 0.10E+00    7.6     0.00000466      -635.9342463898  1.95E-07
   253 Broy./Diag. 0.10E+00    7.6     0.00000683      -635.9342452069  1.18E-06
   254 Broy./Diag. 0.10E+00    7.6     0.00001243      -635.9342435126  1.69E-06
   255 Broy./Diag. 0.10E+00    7.6     0.00000644      -635.9342436603 -1.48E-07
   256 Broy./Diag. 0.10E+00    7.6     0.00000585      -635.9342444863 -8.26E-07
   257 Broy./Diag. 0.10E+00    7.6     0.00000555      -635.9342443122  1.74E-07
   258 Broy./Diag. 0.10E+00    7.6     0.00000478      -635.9342442479  6.43E-08
   259 Broy./Diag. 0.10E+00    7.6     0.00000525      -635.9342442105  3.74E-08
   260 Broy./Diag. 0.10E+00    7.6     0.00000640      -635.9342437159  4.95E-07
   261 Broy./Diag. 0.10E+00    7.6     0.00000052      -635.9342438930 -1.77E-07
   262 Broy./Diag. 0.10E+00    7.6     0.00000114      -635.9342439330 -4.01E-08
   263 Broy./Diag. 0.10E+00    7.6     0.00000268      -635.9342437899  1.43E-07
   264 Broy./Diag. 0.10E+00    7.6     0.00000455      -635.9342438775 -8.76E-08
   265 Broy./Diag. 0.10E+00    7.6     0.00000095      -635.9342436988  1.79E-07
   266 Broy./Diag. 0.10E+00    7.6     0.00000316      -635.9342437916 -9.29E-08
   267 Broy./Diag. 0.10E+00    7.6     0.00000090      -635.9342435759  2.16E-07
   268 Broy./Diag. 0.10E+00    7.6     0.00000200      -635.9342430566  5.19E-07
   269 Broy./Diag. 0.10E+00    7.6     0.00000410      -635.9342429430  1.14E-07
   270 Broy./Diag. 0.10E+00    7.6     0.00000615      -635.9342419773  9.66E-07
   271 Broy./Diag. 0.10E+00    7.6     0.00000926      -635.9342434435 -1.47E-06
   272 Broy./Diag. 0.10E+00    7.6     0.00000124      -635.9342424957  9.48E-07
   273 Broy./Diag. 0.10E+00    7.6     0.00000149      -635.9342420940  4.02E-07
   274 Broy./Diag. 0.10E+00    7.6     0.00000037      -635.9342420831  1.08E-08
   275 Broy./Diag. 0.10E+00    7.6     0.00000027      -635.9342418563  2.27E-07

  *** SCF run converged in   275 steps ***


  Electronic density on regular grids:       -447.9999999999        0.0000000001
  Core density on regular grids:              447.9999999996       -0.0000000004
  Total charge density on r-space grids:       -0.0000000002
  Total charge density g-space grids:          -0.0000000002

  Overlap energy of the core charge distribution:               0.00001865557362
  Self energy of the core charge distribution:              -1493.52088779770361
  Core Hamiltonian energy:                                    464.66110882392525
  Hartree energy:                                             587.11712434589367
  Exchange-correlation energy:                               -194.06718133595771
  Dispersion energy:                                           -0.11774154511310
  Electronic entropic energy:                                  -0.00668300338183
  Fermi energy:                                                -0.15834027153484

  Total energy:                                              -635.93424185626827

  outer SCF iter =    1 RMS gradient =   0.27E-06 energy =       -635.9342418563
  outer SCF loop converged in   1 iterations or  275 steps


  Integrated absolute spin density  :                               0.0008647560
  WARNING: S**2 computation does not yet treat fractional occupied orbitals

 *** WARNING in qs_loc_utils.F:1500 :: User requested the calculation of ***
 *** the localized wavefunction but the section LOCALIZE was not         ***
 *** specified. Localization will not be performed!                      ***


 -------------------------------------------------------------------------------
 -                                                                             -
 -  BSSE CALCULATION         FRAGMENT CONF: 01        FRAGMENT SUBCONF: 01     -
 -                           CHARGE =     0           MULTIPLICITY =     0     -
 -                                                                             -
 -                 ATOM INDEX                              ATOM NAME           -
 -                 ----------                              ---------           -
 -                    113                                   Na                 -
 -------------------------------------------------------------------------------

 *******************************************************************************
 *******************************************************************************
 **                                                                           **
 **     #####                         ##              ##                      **
 **    ##   ##            ##          ##              ##                      **
 **   ##     ##                       ##            ######                    **
 **   ##     ##  ##   ##  ##   #####  ##  ##   ####   ##    #####    #####    **
 **   ##     ##  ##   ##  ##  ##      ## ##   ##      ##   ##   ##  ##   ##   **
 **   ##  ## ##  ##   ##  ##  ##      ####     ###    ##   ######   ######    **
 **    ##  ###   ##   ##  ##  ##      ## ##      ##   ##   ##       ##        **
 **     #######   #####   ##   #####  ##  ##  ####    ##    #####   ##        **
 **           ##                                                    ##        **
 **                                                                           **
 **                                                ... make the atoms dance   **
 **                                                                           **
 **            Copyright (C) by CP2K developers group (2000-2022)             **
 **                      J. Chem. Phys. 152, 194103 (2020)                    **
 **                                                                           **
 *******************************************************************************

 *** WARNING in qs_environment.F:1470 :: More ADDED_MOs requested for beta ***
 *** spin than available.                                                  ***


 *** WARNING in qs_environment.F:1486 :: More added MOs requested than     ***
 *** available. The full set of unoccupied MOs will be used. Use           ***
 *** 'ADDED_MOS -1' to always use all available MOs and to get rid of this ***
 *** warning.                                                              ***



 TOTAL NUMBERS AND MAXIMUM NUMBERS

  Total number of            - Atomic kinds:                                   1
                             - Atoms:                                          1
                             - Shell sets:                                     1
                             - Shells:                                         5
                             - Primitive Cartesian functions:                  7
                             - Cartesian basis functions:                      9
                             - Spherical basis functions:                      9

  Maximum angular momentum of- Orbital basis functions:                        1
                             - Local part of the GTH pseudopotential:          2
                             - Non-local part of the GTH pseudopotential:      1


 SCF PARAMETERS         Density guess:                                    ATOMIC
                        --------------------------------------------------------
                        max_scf:                                             400
                        max_scf_history:                                       0
                        max_diis:                                              4
                        --------------------------------------------------------
                        eps_scf:                                        3.00E-07
                        eps_scf_history:                                0.00E+00
                        eps_diis:                                       1.00E-01
                        eps_eigval:                                     1.00E-05
                        --------------------------------------------------------
                        level_shift [a.u.]:                             0.000000
                        added MOs                                         4    5
                        --------------------------------------------------------
                        Mixing method:                            BROYDEN_MIXING
                                                charge density mixing in g-space
                        --------------------------------------------------------
                        Smear method:                                FERMI_DIRAC
                        Electronic temperature [K]:                        300.0
                        Electronic temperature [a.u.]:                  9.50E-04
                        Accuracy threshold:                             1.00E-10
                        --------------------------------------------------------
                        Outer loop SCF in use 
                        No variables optimised in outer loop
                        eps_scf                                         1.00E-06
                        max_scf                                              100
                        DIIS optimization
                        DIIS buffer length                                     3
                        step_size                                       5.00E-01

 Spin 1

 Number of electrons:                                                          5
 Number of occupied orbitals:                                                  5
 Number of molecular orbitals:                                                 9

 Spin 2

 Number of electrons:                                                          4
 Number of occupied orbitals:                                                  4
 Number of molecular orbitals:                                                 9

 Number of orbital functions:                                                  9
 Number of independent orbital functions:                                      9

 Extrapolation method: initial_guess


 SCF WAVEFUNCTION OPTIMIZATION

  Step     Update method      Time    Convergence         Total energy    Change
  ------------------------------------------------------------------------------
     1 NoMix/Diag. 0.10E+00    1.8     0.42029118       -47.1695495572 -4.72E+01
     2 Broy./Diag. 0.10E+00    3.9     0.00659232       -47.1292410560  4.03E-02
     3 Broy./Diag. 0.10E+00    4.0     0.02132677       -47.1698269853 -4.06E-02
     4 Broy./Diag. 0.10E+00    4.1     0.00031902       -47.1614051534  8.42E-03
     5 Broy./Diag. 0.10E+00    4.2     0.12558348       -47.1720870346 -1.07E-02
     6 Broy./Diag. 0.10E+00    4.3     0.01722884       -46.7636703724  4.08E-01
     7 Broy./Diag. 0.10E+00    4.4     0.00354338       -46.7534147020  1.03E-02
     8 Broy./Diag. 0.10E+00    4.6     0.01094284       -46.7673298248 -1.39E-02
     9 Broy./Diag. 0.10E+00    4.7     0.04253848       -46.8623683773 -9.50E-02
    10 Broy./Diag. 0.10E+00    4.9     0.01704821       -47.0142257843 -1.52E-01
    11 Broy./Diag. 0.10E+00    4.9     0.00537556       -47.0827283081 -6.85E-02
    12 Broy./Diag. 0.10E+00    4.9     0.01476471       -47.1040522946 -2.13E-02
    13 Broy./Diag. 0.10E+00    4.9     0.01865951       -47.1511605986 -4.71E-02
    14 Broy./Diag. 0.10E+00    4.9     0.00372560       -47.1995470720 -4.84E-02
    15 Broy./Diag. 0.10E+00    4.9     0.01203348       -47.1657890068  3.38E-02
    16 Broy./Diag. 0.10E+00    4.9     0.01046921       -47.1961911559 -3.04E-02
    17 Broy./Diag. 0.10E+00    4.9     0.00131643       -47.2422494882 -4.61E-02
    18 Broy./Diag. 0.10E+00    4.9     0.00360577       -47.2396047323  2.64E-03
    19 Broy./Diag. 0.10E+00    4.9     0.00419378       -47.2650242852 -2.54E-02
    20 Broy./Diag. 0.10E+00    4.9     0.00357934       -47.2860086491 -2.10E-02
    21 Broy./Diag. 0.10E+00    4.9     0.00116067       -47.2972851459 -1.13E-02
    22 Broy./Diag. 0.10E+00    4.9     0.00037209       -47.2918849651  5.40E-03
    23 Broy./Diag. 0.10E+00    4.9     0.00018735       -47.2910328781  8.52E-04
    24 Broy./Diag. 0.10E+00    4.9     0.01139057       -47.2942639790 -3.23E-03
    25 Broy./Diag. 0.10E+00    4.9     0.00348136       -47.2396568109  5.46E-02
    26 Broy./Diag. 0.10E+00    4.9     0.00286972       -47.2216800900  1.80E-02
    27 Broy./Diag. 0.10E+00    4.9     0.00085540       -47.2082420980  1.34E-02
    28 Broy./Diag. 0.10E+00    4.9     0.00044757       -47.2046975231  3.54E-03
    29 Broy./Diag. 0.10E+00    4.9     0.00284478       -47.2079007003 -3.20E-03
    30 Broy./Diag. 0.10E+00    4.9     0.00329326       -47.2172106769 -9.31E-03
    31 Broy./Diag. 0.10E+00    4.9     0.00076868       -47.2321489617 -1.49E-02
    32 Broy./Diag. 0.10E+00    4.9     0.00153653       -47.2351757946 -3.03E-03
    33 Broy./Diag. 0.10E+00    4.9     0.00243370       -47.2405250088 -5.35E-03
    34 Broy./Diag. 0.10E+00    4.9     0.00099515       -47.2520016420 -1.15E-02
    35 Broy./Diag. 0.10E+00    4.9     0.00247236       -47.2566124974 -4.61E-03
    36 Broy./Diag. 0.10E+00    4.9     0.00096470       -47.2680368287 -1.14E-02
    37 Broy./Diag. 0.10E+00    4.9     0.00028991       -47.2717289249 -3.69E-03
    38 Broy./Diag. 0.10E+00    4.9     0.00079407       -47.2748650129 -3.14E-03
    39 Broy./Diag. 0.10E+00    4.9     0.00131939       -47.2694724807  5.39E-03
    40 Broy./Diag. 0.10E+00    4.9     0.00017622       -47.2657789530  3.69E-03
    41 Broy./Diag. 0.10E+00    4.9     0.00019435       -47.2563700291  9.41E-03
    42 Broy./Diag. 0.10E+00    4.9     0.00027643       -47.2417547984  1.46E-02
    43 Broy./Diag. 0.10E+00    4.9     0.00033618       -47.2233960288  1.84E-02
    44 Broy./Diag. 0.10E+00    4.9     0.00035973       -47.2025116539  2.09E-02
    45 Broy./Diag. 0.10E+00    4.9     0.00020274       -47.1879973636  1.45E-02
    46 Broy./Diag. 0.10E+00    4.9     0.00022322       -47.1723569589  1.56E-02
    47 Broy./Diag. 0.10E+00    4.9     0.00009598       -47.1648938114  7.46E-03
    48 Broy./Diag. 0.10E+00    4.9     0.00001710       -47.1638085256  1.09E-03
    49 Broy./Diag. 0.10E+00    4.9     0.00002432       -47.1640022313 -1.94E-04
    50 Broy./Diag. 0.10E+00    4.9     0.00007854       -47.1641479699 -1.46E-04
    51 Broy./Diag. 0.10E+00    4.9     0.00005245       -47.1643174656 -1.69E-04
    52 Broy./Diag. 0.10E+00    4.9     0.00015762       -47.1643694966 -5.20E-05
    53 Broy./Diag. 0.10E+00    4.9     0.00031458       -47.1642771311  9.24E-05
    54 Broy./Diag. 0.10E+00    4.9     0.00019197       -47.1687223635 -4.45E-03
    55 Broy./Diag. 0.10E+00    4.9     0.00024859       -47.1684266680  2.96E-04
    56 Broy./Diag. 0.10E+00    4.9     0.00023802       -47.1653855166  3.04E-03
    57 Broy./Diag. 0.10E+00    4.9     0.00029915       -47.1632143978  2.17E-03
    58 Broy./Diag. 0.10E+00    4.9     0.00012904       -47.1622293813  9.85E-04
    59 Broy./Diag. 0.10E+00    4.9     0.00008745       -47.1641661201 -1.94E-03
    60 Broy./Diag. 0.10E+00    4.9     0.00038304       -47.1653463196 -1.18E-03
    61 Broy./Diag. 0.10E+00    4.9     0.00010764       -47.1659320004 -5.86E-04
    62 Broy./Diag. 0.10E+00    4.9     0.00002748       -47.1642001695  1.73E-03
    63 Broy./Diag. 0.10E+00    4.9     0.00008807       -47.1630976951  1.10E-03
    64 Broy./Diag. 0.10E+00    4.9     0.00023809       -47.1620801140  1.02E-03
    65 Broy./Diag. 0.10E+00    4.9     0.00062137       -47.1614749768  6.05E-04
    66 Broy./Diag. 0.10E+00    4.9     0.00012191       -47.1625014756 -1.03E-03
    67 Broy./Diag. 0.10E+00    4.8     0.00022607       -47.1627287951 -2.27E-04
    68 Broy./Diag. 0.10E+00    4.8     0.00041860       -47.1634067110 -6.78E-04
    69 Broy./Diag. 0.10E+00    4.8     0.00040116       -47.1645536077 -1.15E-03
    70 Broy./Diag. 0.10E+00    4.8     0.00022420       -47.1658480553 -1.29E-03
    71 Broy./Diag. 0.10E+00    4.8     0.00005995       -47.1668441869 -9.96E-04
    72 Broy./Diag. 0.10E+00    4.8     0.00003408       -47.1673211762 -4.77E-04
    73 Broy./Diag. 0.10E+00    4.8     0.00001462       -47.1677401020 -4.19E-04
    74 Broy./Diag. 0.10E+00    4.8     0.00000736       -47.1674675727  2.73E-04
    75 Broy./Diag. 0.10E+00    4.8     0.00000524       -47.1674452738  2.23E-05
    76 Broy./Diag. 0.10E+00    4.8     0.00000426       -47.1671258447  3.19E-04
    77 Broy./Diag. 0.10E+00    4.8     0.00000720       -47.1667009247  4.25E-04
    78 Broy./Diag. 0.10E+00    4.8     0.00001542       -47.1658613184  8.40E-04
    79 Broy./Diag. 0.10E+00    4.8     0.00002553       -47.1645468107  1.31E-03
    80 Broy./Diag. 0.10E+00    4.8     0.00001139       -47.1638174737  7.29E-04
    81 Broy./Diag. 0.10E+00    4.8     0.00000455       -47.1636345676  1.83E-04
    82 Broy./Diag. 0.10E+00    4.8     0.00003125       -47.1634813918  1.53E-04
    83 Broy./Diag. 0.10E+00    4.8     0.00000625       -47.1634114550  6.99E-05
    84 Broy./Diag. 0.10E+00    4.8     0.00000150       -47.1634535564 -4.21E-05
    85 Broy./Diag. 0.10E+00    4.8     0.00000229       -47.1635066406 -5.31E-05
    86 Broy./Diag. 0.10E+00    4.8     0.00000221       -47.1635176092 -1.10E-05
    87 Broy./Diag. 0.10E+00    4.8     0.00000166       -47.1635680085 -5.04E-05
    88 Broy./Diag. 0.10E+00    4.8     0.00000190       -47.1635271921  4.08E-05
    89 Broy./Diag. 0.10E+00    4.8     0.00000700       -47.1635051372  2.21E-05
    90 Broy./Diag. 0.10E+00    4.8     0.00000222       -47.1634913595  1.38E-05
    91 Broy./Diag. 0.10E+00    4.8     0.00000067       -47.1635172258 -2.59E-05
    92 Broy./Diag. 0.10E+00    4.8     0.00000734       -47.1635221984 -4.97E-06
    93 Broy./Diag. 0.10E+00    4.8     0.00000801       -47.1634945654  2.76E-05
    94 Broy./Diag. 0.10E+00    4.8     0.00000933       -47.1634726277  2.19E-05
    95 Broy./Diag. 0.10E+00    4.8     0.00000301       -47.1635139429 -4.13E-05
    96 Broy./Diag. 0.10E+00    4.8     0.00001034       -47.1635222122 -8.27E-06
    97 Broy./Diag. 0.10E+00    4.8     0.00000566       -47.1634950083  2.72E-05
    98 Broy./Diag. 0.10E+00    4.8     0.00000329       -47.1635134854 -1.85E-05
    99 Broy./Diag. 0.10E+00    4.8     0.00000106       -47.1635221383 -8.65E-06
   100 Broy./Diag. 0.10E+00    4.8     0.00000735       -47.1635240989 -1.96E-06
   101 Broy./Diag. 0.10E+00    4.8     0.00000173       -47.1635509182 -2.68E-05
   102 Broy./Diag. 0.10E+00    4.8     0.00000269       -47.1635456911  5.23E-06
   103 Broy./Diag. 0.10E+00    4.8     0.00000193       -47.1635401271  5.56E-06
   104 Broy./Diag. 0.10E+00    4.8     0.00000136       -47.1635455821 -5.46E-06
   105 Broy./Diag. 0.10E+00    4.8     0.00000620       -47.1635404221  5.16E-06
   106 Broy./Diag. 0.10E+00    4.8     0.00000070       -47.1635240889  1.63E-05
   107 Broy./Diag. 0.10E+00    4.8     0.00000189       -47.1635151345  8.95E-06
   108 Broy./Diag. 0.10E+00    4.8     0.00000182       -47.1635347406 -1.96E-05
   109 Broy./Diag. 0.10E+00    4.8     0.00000393       -47.1635483964 -1.37E-05
   110 Broy./Diag. 0.10E+00    4.8     0.00000185       -47.1635435320  4.86E-06
   111 Broy./Diag. 0.10E+00    4.8     0.00000444       -47.1635534555 -9.92E-06
   112 Broy./Diag. 0.10E+00    4.8     0.00000203       -47.1635797219 -2.63E-05
   113 Broy./Diag. 0.10E+00    4.8     0.00000046       -47.1635830229 -3.30E-06
   114 Broy./Diag. 0.10E+00    4.8     0.00000181       -47.1635760904  6.93E-06
   115 Broy./Diag. 0.10E+00    4.8     0.00000215       -47.1635934246 -1.73E-05
   116 Broy./Diag. 0.10E+00    4.8     0.00000055       -47.1635885176  4.91E-06
   117 Broy./Diag. 0.10E+00    4.8     0.00000092       -47.1635820696  6.45E-06
   118 Broy./Diag. 0.10E+00    4.8     0.00000296       -47.1635762370  5.83E-06
   119 Broy./Diag. 0.10E+00    4.8     0.00000055       -47.1635713999  4.84E-06
   120 Broy./Diag. 0.10E+00    4.8     0.00000119       -47.1635684910  2.91E-06
   121 Broy./Diag. 0.10E+00    4.8     0.00000125       -47.1635607406  7.75E-06
   122 Broy./Diag. 0.10E+00    4.8     0.00000897       -47.1635660351 -5.29E-06
   123 Broy./Diag. 0.10E+00    4.8     0.00000170       -47.1635644597  1.58E-06
   124 Broy./Diag. 0.10E+00    4.8     0.00000123       -47.1635318518  3.26E-05
   125 Broy./Diag. 0.10E+00    4.8     0.00000043       -47.1635430054 -1.12E-05
   126 Broy./Diag. 0.10E+00    4.8     0.00000224       -47.1635451999 -2.19E-06
   127 Broy./Diag. 0.10E+00    4.8     0.00000053       -47.1635514160 -6.22E-06
   128 Broy./Diag. 0.10E+00    4.8     0.00000067       -47.1635446501  6.77E-06
   129 Broy./Diag. 0.10E+00    4.8     0.00000024       -47.1635362211  8.43E-06

  *** SCF run converged in   129 steps ***


  Electronic density on regular grids:         -8.9999571001        0.0000428999
  Core density on regular grids:                9.0000000000       -0.0000000000
  Total charge density on r-space grids:        0.0000428999
  Total charge density g-space grids:           0.0000428999

  Overlap energy of the core charge distribution:               0.00000000000000
  Self energy of the core charge distribution:                -96.60649019442629
  Core Hamiltonian energy:                                     29.76169381373844
  Hartree energy:                                              26.73631564953364
  Exchange-correlation energy:                                 -7.05505428515944
  Dispersion energy:                                           -0.00000120476189
  Electronic entropic energy:                                  -0.00000000000000
  Fermi energy:                                                -0.06959070034018

  Total energy:                                               -47.16353622107554

  outer SCF iter =    1 RMS gradient =   0.24E-06 energy =        -47.1635362211
  outer SCF loop converged in   1 iterations or  129 steps


  Integrated absolute spin density  :                               1.0000402518
  WARNING: S**2 computation does not yet treat fractional occupied orbitals

 *** WARNING in qs_loc_utils.F:1500 :: User requested the calculation of ***
 *** the localized wavefunction but the section LOCALIZE was not         ***
 *** specified. Localization will not be performed!                      ***


 -------------------------------------------------------------------------------
 -                                                                             -
 -  BSSE CALCULATION         FRAGMENT CONF: 11        FRAGMENT SUBCONF: 10     -
 -                           CHARGE =     0           MULTIPLICITY =     0     -
 -                                                                             -
 -                 ATOM INDEX                              ATOM NAME           -
 -                 ----------                              ---------           -
 -                      1                                   C                  -
 -                      2                                   C                  -
 -                      3                                   C                  -
 -                      4                                   C                  -
 -                      5                                   C                  -
 -                      6                                   C                  -
 -                      7                                   C                  -
 -                      8                                   C                  -
 -                      9                                   C                  -
 -                     10                                   C                  -
 -                     11                                   C                  -
 -                     12                                   C                  -
 -                     13                                   C                  -
 -                     14                                   C                  -
 -                     15                                   C                  -
 -                     16                                   C                  -
 -                     17                                   C                  -
 -                     18                                   C                  -
 -                     19                                   C                  -
 -                     20                                   C                  -
 -                     21                                   C                  -
 -                     22                                   C                  -
 -                     23                                   C                  -
 -                     24                                   C                  -
 -                     25                                   C                  -
 -                     26                                   C                  -
 -                     27                                   C                  -
 -                     28                                   C                  -
 -                     29                                   C                  -
 -                     30                                   C                  -
 -                     31                                   C                  -
 -                     32                                   C                  -
 -                     33                                   C                  -
 -                     34                                   C                  -
 -                     35                                   C                  -
 -                     36                                   C                  -
 -                     37                                   C                  -
 -                     38                                   C                  -
 -                     39                                   C                  -
 -                     40                                   C                  -
 -                     41                                   C                  -
 -                     42                                   C                  -
 -                     43                                   C                  -
 -                     44                                   C                  -
 -                     45                                   C                  -
 -                     46                                   C                  -
 -                     47                                   C                  -
 -                     48                                   C                  -
 -                     49                                   C                  -
 -                     50                                   C                  -
 -                     51                                   C                  -
 -                     52                                   C                  -
 -                     53                                   C                  -
 -                     54                                   C                  -
 -                     55                                   C                  -
 -                     56                                   C                  -
 -                     57                                   C                  -
 -                     58                                   C                  -
 -                     59                                   C                  -
 -                     60                                   C                  -
 -                     61                                   C                  -
 -                     62                                   C                  -
 -                     63                                   C                  -
 -                     64                                   C                  -
 -                     65                                   C                  -
 -                     66                                   C                  -
 -                     67                                   C                  -
 -                     68                                   C                  -
 -                     69                                   C                  -
 -                     70                                   C                  -
 -                     71                                   C                  -
 -                     72                                   C                  -
 -                     73                                   C                  -
 -                     74                                   C                  -
 -                     75                                   C                  -
 -                     76                                   C                  -
 -                     77                                   C                  -
 -                     78                                   C                  -
 -                     79                                   C                  -
 -                     80                                   C                  -
 -                     81                                   C                  -
 -                     82                                   C                  -
 -                     83                                   C                  -
 -                     84                                   C                  -
 -                     85                                   C                  -
 -                     86                                   C                  -
 -                     87                                   C                  -
 -                     88                                   C                  -
 -                     89                                   C                  -
 -                     90                                   C                  -
 -                     91                                   C                  -
 -                     92                                   C                  -
 -                     93                                   C                  -
 -                     94                                   C                  -
 -                     95                                   C                  -
 -                     96                                   C                  -
 -                     97                                   C                  -
 -                     98                                   C                  -
 -                     99                                   C                  -
 -                    100                                   C                  -
 -                    101                                   C                  -
 -                    102                                   C                  -
 -                    103                                   C                  -
 -                    104                                   C                  -
 -                    105                                   C                  -
 -                    106                                   C                  -
 -                    107                                   C                  -
 -                    108                                   C                  -
 -                    109                                   C                  -
 -                    110                                   C                  -
 -                    111                                   C                  -
 -                    112                                   C                  -
 -                    113                                   Na_ghost           -
 -------------------------------------------------------------------------------

 *******************************************************************************
 *******************************************************************************
 **                                                                           **
 **     #####                         ##              ##                      **
 **    ##   ##            ##          ##              ##                      **
 **   ##     ##                       ##            ######                    **
 **   ##     ##  ##   ##  ##   #####  ##  ##   ####   ##    #####    #####    **
 **   ##     ##  ##   ##  ##  ##      ## ##   ##      ##   ##   ##  ##   ##   **
 **   ##  ## ##  ##   ##  ##  ##      ####     ###    ##   ######   ######    **
 **    ##  ###   ##   ##  ##  ##      ## ##      ##   ##   ##       ##        **
 **     #######   #####   ##   #####  ##  ##  ####    ##    #####   ##        **
 **           ##                                                    ##        **
 **                                                                           **
 **                                                ... make the atoms dance   **
 **                                                                           **
 **            Copyright (C) by CP2K developers group (2000-2022)             **
 **                      J. Chem. Phys. 152, 194103 (2020)                    **
 **                                                                           **
 *******************************************************************************


 TOTAL NUMBERS AND MAXIMUM NUMBERS

  Total number of            - Atomic kinds:                                   2
                             - Atoms:                                        113
                             - Shell sets:                                   113
                             - Shells:                                       565
                             - Primitive Cartesian functions:                567
[...]
   355 Broy./Diag. 0.10E+00    7.6     0.00002026      -683.1536898516 -8.18E-07
   356 Broy./Diag. 0.10E+00    7.6     0.00002847      -683.1536878865  1.97E-06
   357 Broy./Diag. 0.10E+00    7.6     0.00002624      -683.1536893982 -1.51E-06
   358 Broy./Diag. 0.10E+00    7.6     0.00000826      -683.1536891509  2.47E-07
   359 Broy./Diag. 0.10E+00    7.6     0.00001700      -683.1536893263 -1.75E-07
   360 Broy./Diag. 0.10E+00    7.6     0.00003379      -683.1536876726  1.65E-06
   361 Broy./Diag. 0.10E+00    7.6     0.00002872      -683.1536898681 -2.20E-06
   362 Broy./Diag. 0.10E+00    7.6     0.00004224      -683.1536892652  6.03E-07
   363 Broy./Diag. 0.10E+00    7.6     0.00004008      -683.1536892025  6.27E-08
   364 Broy./Diag. 0.10E+00    7.6     0.00003473      -683.1536890926  1.10E-07
   365 Broy./Diag. 0.10E+00    7.6     0.00001890      -683.1536898236 -7.31E-07
   366 Broy./Diag. 0.10E+00    7.6     0.00002789      -683.1536882357  1.59E-06
   367 Broy./Diag. 0.10E+00    7.6     0.00002175      -683.1536893809 -1.15E-06
   368 Broy./Diag. 0.10E+00    7.6     0.00000404      -683.1536891988  1.82E-07
   369 Broy./Diag. 0.10E+00    7.6     0.00001892      -683.1536894262 -2.27E-07
   370 Broy./Diag. 0.10E+00    7.6     0.00003478      -683.1536879332  1.49E-06
   371 Broy./Diag. 0.10E+00    7.6     0.00002781      -683.1536896503 -1.72E-06
   372 Broy./Diag. 0.10E+00    7.6     0.00004247      -683.1536889122  7.38E-07
   373 Broy./Diag. 0.10E+00    7.6     0.00003327      -683.1536893393 -4.27E-07
   374 Broy./Diag. 0.10E+00    7.6     0.00001984      -683.1536891339  2.05E-07
   375 Broy./Diag. 0.10E+00    7.6     0.00001574      -683.1536897610 -6.27E-07
   376 Broy./Diag. 0.10E+00    7.6     0.00002498      -683.1536882266  1.53E-06
   377 Broy./Diag. 0.10E+00    7.6     0.00001414      -683.1536892798 -1.05E-06
   378 Broy./Diag. 0.10E+00    7.6     0.00000199      -683.1536891252  1.55E-07
   379 Broy./Diag. 0.10E+00    7.6     0.00001895      -683.1536894103 -2.85E-07
   380 Broy./Diag. 0.10E+00    7.6     0.00003386      -683.1536877518  1.66E-06
   381 Broy./Diag. 0.10E+00    7.6     0.00002671      -683.1536893299 -1.58E-06
   382 Broy./Diag. 0.10E+00    7.6     0.00004111      -683.1536881731  1.16E-06
   383 Broy./Diag. 0.10E+00    7.6     0.00003507      -683.1536893607 -1.19E-06
   384 Broy./Diag. 0.10E+00    7.6     0.00001242      -683.1536895587 -1.98E-07
   385 Broy./Diag. 0.10E+00    7.6     0.00001348      -683.1536895600 -1.32E-09
   386 Broy./Diag. 0.10E+00    7.6     0.00002069      -683.1536884300  1.13E-06
   387 Broy./Diag. 0.10E+00    7.6     0.00001359      -683.1536891912 -7.61E-07
   388 Broy./Diag. 0.10E+00    7.6     0.00000464      -683.1536891289  6.22E-08
   389 Broy./Diag. 0.10E+00    7.6     0.00002036      -683.1536896727 -5.44E-07
   390 Broy./Diag. 0.10E+00    7.6     0.00004050      -683.1536879538  1.72E-06
   391 Broy./Diag. 0.10E+00    7.6     0.00005513      -683.1536901542 -2.20E-06
   392 Broy./Diag. 0.10E+00    7.6     0.00004124      -683.1536877339  2.42E-06
   393 Broy./Diag. 0.10E+00    7.6     0.00001546      -683.1536892888 -1.55E-06
   394 Broy./Diag. 0.10E+00    7.6     0.00001268      -683.1536883275  9.61E-07
   395 Broy./Diag. 0.10E+00    7.6     0.00002145      -683.1536895767 -1.25E-06
   396 Broy./Diag. 0.10E+00    7.6     0.00001632      -683.1536886000  9.77E-07
   397 Broy./Diag. 0.10E+00    7.6     0.00001335      -683.1536890512 -4.51E-07
   398 Broy./Diag. 0.10E+00    7.6     0.00001212      -683.1536888977  1.53E-07
   399 Broy./Diag. 0.10E+00    7.6     0.00001167      -683.1536896106 -7.13E-07
   400 Broy./Diag. 0.10E+00    7.6     0.00003075      -683.1536883160  1.29E-06

  Leaving inner SCF loop after reaching   400 steps.


  Electronic density on regular grids:       -456.9999569774        0.0000430226
  Core density on regular grids:              456.9999999996       -0.0000000004
  Total charge density on r-space grids:        0.0000430222
  Total charge density g-space grids:           0.0000430222

  Overlap energy of the core charge distribution:               0.00001865557362
  Self energy of the core charge distribution:              -1590.12737799213005
  Core Hamiltonian energy:                                    494.69480160309672
  Hartree energy:                                             613.73369690908839
  Exchange-correlation energy:                               -201.32377141001416
  Dispersion energy:                                           -0.12325883248128
  Electronic entropic energy:                                  -0.00779721276994
  Fermi energy:                                                -0.14444368963905

  Total energy:                                              -683.15368831602052

  outer SCF iter =   54 RMS gradient =   0.31E-04 energy =       -683.1536883160
     1 Broy./Diag. 0.10E+00   13.4     0.00113069      -683.1536480565  4.03E-05
     2 Broy./Diag. 0.10E+00    7.6     0.00103090      -683.1537176550 -6.96E-05
     3 Broy./Diag. 0.10E+00    7.6     0.00003877      -683.1536883069  2.93E-05
     4 Broy./Diag. 0.10E+00    7.6     0.00072805      -683.1536623600  2.59E-05
     5 Broy./Diag. 0.10E+00    7.6     0.00004059      -683.1536778975 -1.55E-05
     6 Broy./Diag. 0.10E+00    7.6     0.00011780      -683.1536777370  1.61E-07
     7 Broy./Diag. 0.10E+00    7.6     0.00041615      -683.1536721871  5.55E-06
     8 Broy./Diag. 0.10E+00    7.6     0.00023835      -683.1536688033  3.38E-06
     9 Broy./Diag. 0.10E+00    7.6     0.00010911      -683.1536676057  1.20E-06
    10 Broy./Diag. 0.10E+00    7.6     0.00007022      -683.1536698838 -2.28E-06
    11 Broy./Diag. 0.10E+00    7.6     0.00117398      -683.1537016206 -3.17E-05
    12 Broy./Diag. 0.10E+00    7.6     0.00002624      -683.1536847683  1.69E-05
    13 Broy./Diag. 0.10E+00    7.6     0.00006961      -683.1536812547  3.51E-06
    14 Broy./Diag. 0.10E+00    7.6     0.00000398      -683.1536844853 -3.23E-06
    15 Broy./Diag. 0.10E+00    7.6     0.00002824      -683.1536836046  8.81E-07
    16 Broy./Diag. 0.10E+00    7.6     0.00004268      -683.1536853680 -1.76E-06
    17 Broy./Diag. 0.10E+00    7.6     0.00003443      -683.1536846905  6.78E-07
    18 Broy./Diag. 0.10E+00    7.6     0.00002897      -683.1536854001 -7.10E-07
    19 Broy./Diag. 0.10E+00    7.6     0.00001928      -683.1536860952 -6.95E-07
    20 Broy./Diag. 0.10E+00    7.6     0.00001209      -683.1536867039 -6.09E-07
    21 Broy./Diag. 0.10E+00    7.6     0.00006584      -683.1536859493  7.55E-07
    22 Broy./Diag. 0.10E+00    7.6     0.00007258      -683.1536906026 -4.65E-06
    23 Broy./Diag. 0.10E+00    7.6     0.00006114      -683.1536873390  3.26E-06
    24 Broy./Diag. 0.10E+00    7.6     0.00001706      -683.1536874984 -1.59E-07
    25 Broy./Diag. 0.10E+00    7.6     0.00002768      -683.1536890731 -1.57E-06
    26 Broy./Diag. 0.10E+00    7.6     0.00002059      -683.1536886060  4.67E-07
    27 Broy./Diag. 0.10E+00    7.6     0.00001356      -683.1536882053  4.01E-07
    28 Broy./Diag. 0.10E+00    7.6     0.00001999      -683.1536881090  9.63E-08
    29 Broy./Diag. 0.10E+00    7.6     0.00004197      -683.1536894996 -1.39E-06
    30 Broy./Diag. 0.10E+00    7.6     0.00002423      -683.1536890944  4.05E-07
    31 Broy./Diag. 0.10E+00    7.6     0.00004865      -683.1536869535  2.14E-06
    32 Broy./Diag. 0.10E+00    7.6     0.00004420      -683.1536879196 -9.66E-07
    33 Broy./Diag. 0.10E+00    7.6     0.00001417      -683.1536875997  3.20E-07
    34 Broy./Diag. 0.10E+00    7.6     0.00001803      -683.1536873019  2.98E-07
    35 Broy./Diag. 0.10E+00    7.6     0.00001702      -683.1536868461  4.56E-07
    36 Broy./Diag. 0.10E+00    7.6     0.00001417      -683.1536875934 -7.47E-07
    37 Broy./Diag. 0.10E+00    7.6     0.00005506      -683.1536881592 -5.66E-07
    38 Broy./Diag. 0.10E+00    7.6     0.00007114      -683.1536891159 -9.57E-07
    39 Broy./Diag. 0.10E+00    7.6     0.00004308      -683.1536869603  2.16E-06
    40 Broy./Diag. 0.10E+00    7.6     0.00001778      -683.1536877113 -7.51E-07
    41 Broy./Diag. 0.10E+00    7.6     0.00004362      -683.1536867689  9.42E-07
    42 Broy./Diag. 0.10E+00    7.6     0.00006464      -683.1536889301 -2.16E-06
    43 Broy./Diag. 0.10E+00    7.6     0.00004675      -683.1536891239 -1.94E-07
    44 Broy./Diag. 0.10E+00    7.6     0.00004383      -683.1536868079  2.32E-06
    45 Broy./Diag. 0.10E+00    7.6     0.00005101      -683.1536879900 -1.18E-06
    46 Broy./Diag. 0.10E+00    7.6     0.00003543      -683.1536882004 -2.10E-07
    47 Broy./Diag. 0.10E+00    7.6     0.00005350      -683.1536880984  1.02E-07
    48 Broy./Diag. 0.10E+00    7.6     0.00005628      -683.1536887521 -6.54E-07
    49 Broy./Diag. 0.10E+00    7.6     0.00001420      -683.1536882480  5.04E-07
    50 Broy./Diag. 0.10E+00    7.6     0.00004434      -683.1536891707 -9.23E-07
    51 Broy./Diag. 0.10E+00    7.6     0.00003273      -683.1536883840  7.87E-07
    52 Broy./Diag. 0.10E+00    7.6     0.00004946      -683.1536899397 -1.56E-06
    53 Broy./Diag. 0.10E+00    7.6     0.00001113      -683.1536893967  5.43E-07
    54 Broy./Diag. 0.10E+00    7.6     0.00000806      -683.1536894982 -1.02E-07
    55 Broy./Diag. 0.10E+00    7.6     0.00004263      -683.1536893782  1.20E-07
    56 Broy./Diag. 0.10E+00    7.6     0.00005163      -683.1536892756  1.03E-07
    57 Broy./Diag. 0.10E+00    7.6     0.00007709      -683.1536887822  4.93E-07
    58 Broy./Diag. 0.10E+00    7.6     0.00007035      -683.1536886477  1.34E-07
    59 Broy./Diag. 0.10E+00    7.6     0.00004636      -683.1536891353 -4.88E-07
    60 Broy./Diag. 0.10E+00    7.6     0.00010712      -683.1536890396  9.57E-08
    61 Broy./Diag. 0.10E+00    7.6     0.00003499      -683.1536882564  7.83E-07
    62 Broy./Diag. 0.10E+00    7.6     0.00006231      -683.1536897541 -1.50E-06
    63 Broy./Diag. 0.10E+00    7.6     0.00009097      -683.1536889278  8.26E-07
    64 Broy./Diag. 0.10E+00    7.6     0.00002690      -683.1536879505  9.77E-07
    65 Broy./Diag. 0.10E+00    7.6     0.00003376      -683.1536888365 -8.86E-07
    66 Broy./Diag. 0.10E+00    7.6     0.00003436      -683.1536875791  1.26E-06
    67 Broy./Diag. 0.10E+00    7.6     0.00006949      -683.1536900758 -2.50E-06
    68 Broy./Diag. 0.10E+00    7.6     0.00004602      -683.1536886313  1.44E-06
    69 Broy./Diag. 0.10E+00    7.6     0.00005120      -683.1536890094 -3.78E-07
    70 Broy./Diag. 0.10E+00    7.6     0.00003315      -683.1536892240 -2.15E-07
    71 Broy./Diag. 0.10E+00    7.6     0.00003532      -683.1536889721  2.52E-07
    72 Broy./Diag. 0.10E+00    7.6     0.00004080      -683.1536894487 -4.77E-07
    73 Broy./Diag. 0.10E+00    7.6     0.00001727      -683.1536886363  8.12E-07
    74 Broy./Diag. 0.10E+00    7.6     0.00005259      -683.1536903075 -1.67E-06
    75 Broy./Diag. 0.10E+00    7.6     0.00008504      -683.1536883088  2.00E-06
    76 Broy./Diag. 0.10E+00    7.6     0.00004686      -683.1536897836 -1.47E-06
    77 Broy./Diag. 0.10E+00    7.6     0.00002509      -683.1536900300 -2.46E-07
    78 Broy./Diag. 0.10E+00    7.6     0.00004573      -683.1536903455 -3.16E-07
    79 Broy./Diag. 0.10E+00    7.6     0.00006398      -683.1536902274  1.18E-07
    80 Broy./Diag. 0.10E+00    7.6     0.00005407      -683.1536898476  3.80E-07
    81 Broy./Diag. 0.10E+00    7.6     0.00005742      -683.1536897311  1.17E-07
    82 Broy./Diag. 0.10E+00    7.6     0.00005871      -683.1536900634 -3.32E-07
    83 Broy./Diag. 0.10E+00    7.6     0.00002024      -683.1536890675  9.96E-07
    84 Broy./Diag. 0.10E+00    7.6     0.00005376      -683.1536905670 -1.50E-06
    85 Broy./Diag. 0.10E+00    7.6     0.00008143      -683.1536892260  1.34E-06
    86 Broy./Diag. 0.10E+00    7.6     0.00004010      -683.1536898648 -6.39E-07
    87 Broy./Diag. 0.10E+00    7.6     0.00001746      -683.1536899015 -3.66E-08
    88 Broy./Diag. 0.10E+00    7.6     0.00003424      -683.1536897506  1.51E-07
    89 Broy./Diag. 0.10E+00    7.6     0.00004712      -683.1536895159  2.35E-07
    90 Broy./Diag. 0.10E+00    7.8     0.00003260      -683.1536895139  1.95E-09
    91 Broy./Diag. 0.10E+00    8.6     0.00001552      -683.1536898598 -3.46E-07
    92 Broy./Diag. 0.10E+00    7.6     0.00000997      -683.1536896451  2.15E-07
    93 Broy./Diag. 0.10E+00    7.6     0.00003925      -683.1536894148  2.30E-07
    94 Broy./Diag. 0.10E+00    7.6     0.00004775      -683.1536907263 -1.31E-06
    95 Broy./Diag. 0.10E+00    7.6     0.00006566      -683.1536896366  1.09E-06
    96 Broy./Diag. 0.10E+00    7.6     0.00003498      -683.1536904958 -8.59E-07
    97 Broy./Diag. 0.10E+00    7.6     0.00000729      -683.1536903043  1.92E-07
    98 Broy./Diag. 0.10E+00    7.6     0.00001512      -683.1536904738 -1.69E-07
    99 Broy./Diag. 0.10E+00    7.6     0.00005159      -683.1536899023  5.72E-07
   100 Broy./Diag. 0.10E+00    7.6     0.00002964      -683.1536908385 -9.36E-07
   101 Broy./Diag. 0.10E+00    7.6     0.00003453      -683.1536886590  2.18E-06
   102 Broy./Diag. 0.10E+00    7.6     0.00003285      -683.1536907646 -2.11E-06
   103 Broy./Diag. 0.10E+00    7.6     0.00003109      -683.1536898365  9.28E-07
   104 Broy./Diag. 0.10E+00    7.6     0.00003700      -683.1536902142 -3.78E-07
   105 Broy./Diag. 0.10E+00    7.6     0.00003995      -683.1536903133 -9.92E-08
   106 Broy./Diag. 0.10E+00    7.6     0.00002562      -683.1536904450 -1.32E-07
   107 Broy./Diag. 0.10E+00    7.6     0.00003053      -683.1536909991 -5.54E-07
   108 Broy./Diag. 0.10E+00    7.6     0.00004417      -683.1536901556  8.43E-07
   109 Broy./Diag. 0.10E+00    7.6     0.00001128      -683.1536900401  1.16E-07
   110 Broy./Diag. 0.10E+00    7.6     0.00006750      -683.1536903910 -3.51E-07
   111 Broy./Diag. 0.10E+00    7.6     0.00007855      -683.1536884952  1.90E-06
   112 Broy./Diag. 0.10E+00    7.6     0.00004742      -683.1536909955 -2.50E-06
   113 Broy./Diag. 0.10E+00    7.6     0.00007813      -683.1536900759  9.20E-07
   114 Broy./Diag. 0.10E+00    7.6     0.00009198      -683.1536887386  1.34E-06
   115 Broy./Diag. 0.10E+00    7.6     0.00007028      -683.1536891980 -4.59E-07
   116 Broy./Diag. 0.10E+00    7.6     0.00008857      -683.1536878324  1.37E-06
   117 Broy./Diag. 0.10E+00    7.6     0.00006702      -683.1536883694 -5.37E-07
   118 Broy./Diag. 0.10E+00    7.6     0.00006866      -683.1536881247  2.45E-07
   119 Broy./Diag. 0.10E+00    7.6     0.00004511      -683.1536873134  8.11E-07
   120 Broy./Diag. 0.10E+00    7.6     0.00005638      -683.1536884413 -1.13E-06
   121 Broy./Diag. 0.10E+00    7.6     0.00002929      -683.1536887657 -3.24E-07
   122 Broy./Diag. 0.10E+00    7.6     0.00005598      -683.1536899310 -1.17E-06
   123 Broy./Diag. 0.10E+00    7.6     0.00002180      -683.1536899198  1.12E-08
   124 Broy./Diag. 0.10E+00    7.6     0.00003334      -683.1536899211 -1.35E-09
   125 Broy./Diag. 0.10E+00    7.6     0.00002322      -683.1536901534 -2.32E-07
   126 Broy./Diag. 0.10E+00    7.6     0.00000980      -683.1536902615 -1.08E-07
   127 Broy./Diag. 0.10E+00    7.6     0.00006161      -683.1536896479  6.14E-07
   128 Broy./Diag. 0.10E+00    7.6     0.00008392      -683.1536908089 -1.16E-06
   129 Broy./Diag. 0.10E+00    7.6     0.00004754      -683.1536892875  1.52E-06
   130 Broy./Diag. 0.10E+00    7.6     0.00003747      -683.1536903710 -1.08E-06
   131 Broy./Diag. 0.10E+00    7.6     0.00000955      -683.1536898939  4.77E-07
   132 Broy./Diag. 0.10E+00    7.6     0.00006319      -683.1536898465  4.74E-08
   133 Broy./Diag. 0.10E+00    7.6     0.00007884      -683.1536908720 -1.03E-06
   134 Broy./Diag. 0.10E+00    7.6     0.00006661      -683.1536895411  1.33E-06
   135 Broy./Diag. 0.10E+00    7.6     0.00006528      -683.1536888623  6.79E-07
   136 Broy./Diag. 0.10E+00    7.6     0.00004271      -683.1536886412  2.21E-07
   137 Broy./Diag. 0.10E+00    7.6     0.00005472      -683.1536889896 -3.48E-07
   138 Broy./Diag. 0.10E+00    7.6     0.00006056      -683.1536896570 -6.67E-07
   139 Broy./Diag. 0.10E+00    7.6     0.00003616      -683.1536905812 -9.24E-07
   140 Broy./Diag. 0.10E+00    7.6     0.00006250      -683.1536890575  1.52E-06
   141 Broy./Diag. 0.10E+00    7.6     0.00007962      -683.1536907989 -1.74E-06
   142 Broy./Diag. 0.10E+00    7.6     0.00001254      -683.1536909248 -1.26E-07
   143 Broy./Diag. 0.10E+00    7.6     0.00003297      -683.1536915844 -6.60E-07
   144 Broy./Diag. 0.10E+00    7.6     0.00009219      -683.1536919564 -3.72E-07
   145 Broy./Diag. 0.10E+00    7.6     0.00008708      -683.1536910835  8.73E-07
   146 Broy./Diag. 0.10E+00    7.6     0.00011826      -683.1536895098  1.57E-06
   147 Broy./Diag. 0.10E+00    7.6     0.00006356      -683.1536907075 -1.20E-06
   148 Broy./Diag. 0.10E+00    7.6     0.00003117      -683.1536900959  6.12E-07
   149 Broy./Diag. 0.10E+00    7.6     0.00003901      -683.1536909025 -8.07E-07
   150 Broy./Diag. 0.10E+00    7.6     0.00008714      -683.1536898395  1.06E-06
   151 Broy./Diag. 0.10E+00    7.6     0.00010164      -683.1536912065 -1.37E-06
   152 Broy./Diag. 0.10E+00    7.6     0.00002188      -683.1536910076  1.99E-07
   153 Broy./Diag. 0.10E+00    7.6     0.00000979      -683.1536903325  6.75E-07
   154 Broy./Diag. 0.10E+00    7.6     0.00004405      -683.1536896093  7.23E-07
   155 Broy./Diag. 0.10E+00    7.6     0.00002879      -683.1536909096 -1.30E-06
   156 Broy./Diag. 0.10E+00    7.6     0.00004395      -683.1536910805 -1.71E-07
   157 Broy./Diag. 0.10E+00    7.6     0.00011130      -683.1536891217  1.96E-06
   158 Broy./Diag. 0.10E+00    7.6     0.00006595      -683.1536896830 -5.61E-07
   159 Broy./Diag. 0.10E+00    7.6     0.00003949      -683.1536906810 -9.98E-07
   160 Broy./Diag. 0.10E+00    7.6     0.00007777      -683.1536926007 -1.92E-06
   161 Broy./Diag. 0.10E+00    7.6     0.00006339      -683.1536889333  3.67E-06
   162 Broy./Diag. 0.10E+00    7.6     0.00005138      -683.1536909892 -2.06E-06
   163 Broy./Diag. 0.10E+00    7.6     0.00004777      -683.1536894830  1.51E-06
   164 Broy./Diag. 0.10E+00    7.6     0.00004946      -683.1536907981 -1.32E-06
   165 Broy./Diag. 0.10E+00    7.6     0.00000840      -683.1536901898  6.08E-07
   166 Broy./Diag. 0.10E+00    7.6     0.00015247      -683.1536911630 -9.73E-07
   167 Broy./Diag. 0.10E+00    7.6     0.00020780      -683.1536927759 -1.61E-06
   168 Broy./Diag. 0.10E+00    7.6     0.00018681      -683.1536913101  1.47E-06
   169 Broy./Diag. 0.10E+00    7.6     0.00011411      -683.1536928650 -1.55E-06
   170 Broy./Diag. 0.10E+00    7.6     0.00017692      -683.1536903673  2.50E-06
   171 Broy./Diag. 0.10E+00    7.6     0.00020576      -683.1536898459  5.21E-07
   172 Broy./Diag. 0.10E+00    7.6     0.00019911      -683.1536948530 -5.01E-06
   173 Broy./Diag. 0.10E+00    7.6     0.00018085      -683.1536900072  4.85E-06
   174 Broy./Diag. 0.10E+00    7.6     0.00013097      -683.1536932626 -3.26E-06
   175 Broy./Diag. 0.10E+00    7.6     0.00002969      -683.1536918499  1.41E-06
   176 Broy./Diag. 0.10E+00    7.6     0.00003013      -683.1536918114  3.85E-08
   177 Broy./Diag. 0.10E+00    7.6     0.00005569      -683.1536928418 -1.03E-06
   178 Broy./Diag. 0.10E+00    7.6     0.00003870      -683.1536932351 -3.93E-07
   179 Broy./Diag. 0.10E+00    7.6     0.00002974      -683.1536922878  9.47E-07
   180 Broy./Diag. 0.10E+00    7.6     0.00003424      -683.1536927058 -4.18E-07
   181 Broy./Diag. 0.10E+00    7.6     0.00002650      -683.1536916646  1.04E-06
   182 Broy./Diag. 0.10E+00    7.6     0.00001998      -683.1536932501 -1.59E-06
   183 Broy./Diag. 0.10E+00    7.6     0.00005869      -683.1536954937 -2.24E-06
   184 Broy./Diag. 0.10E+00    7.6     0.00004601      -683.1536954333  6.04E-08
   185 Broy./Diag. 0.10E+00    7.6     0.00006164      -683.1536946882  7.45E-07
   186 Broy./Diag. 0.10E+00    7.6     0.00006167      -683.1536964190 -1.73E-06
