 DBCSR| CPU Multiplication driver                                           BLAS (U)
 DBCSR| Multrec recursion limit                                              512 (U)
 DBCSR| Multiplication stack size                                           1000 (D)
 DBCSR| Maximum elements for images                                    UNLIMITED (U)
 DBCSR| Multiplicative factor virtual images                                   1 (U)
 DBCSR| Use multiplication densification                                       T (D)
 DBCSR| Multiplication size stacks                                             3 (U)
 DBCSR| Use memory pool for CPU allocation                                     F (U)
 DBCSR| Number of 3D layers                                               SINGLE (U)
 DBCSR| Use MPI memory allocation                                              F (U)
 DBCSR| Use RMA algorithm                                                      F (U)
 DBCSR| Use Communication thread                                               T (U)
 DBCSR| Communication thread load                                             87 (D)
 DBCSR| MPI: My process id                                                     0
 DBCSR| MPI: Number of processes                                              16
 DBCSR| OMP: Current number of threads                                         1
 DBCSR| OMP: Max number of threads                                             1
 DBCSR| Split modifier for TAS multiplication algorithm                  1.0E+00 (U)


  **** **** ******  **  PROGRAM STARTED AT               2025-06-10 14:28:08.433
 ***** ** ***  *** **   PROGRAM STARTED ON                            sebnode124
 **    ****   ******    PROGRAM STARTED BY                                luehrs
 ***** **    ** ** **   PROGRAM PROCESS ID                               1666879
  **** **  *******  **  PROGRAM STARTED IN /home/luehrs/PhD/Sodium_batteries/Sod
                                           ium-graphene-edge/Zig_zag_3/No_hydrog
                                           en

 CP2K| version string:                                       CP2K version 2023.1
 CP2K| source code revision number:                                  git:b888bd8
 CP2K| cp2kflags: omp libint fftw3 libxc elpa parallel scalapack spglib         
 CP2K| is freely available from                            https://www.cp2k.org/
 CP2K| Program compiled at                          Tue Jan 10 19:52:03 UTC 2023
 CP2K| Program compiled on                                            x86-ubc-01
 CP2K| Program compiled for                                Linux-x86_64-gfortran
 CP2K| Data directory path                                       /usr/share/cp2k
 CP2K| Input file name                     graphene_zig_zag_BSSE_PBE-1_2.restart

 GLOBAL| Force Environment number                                              1
 GLOBAL| Basis set file name                                      ./BASIS_MOLOPT
 GLOBAL| Potential file name                                    ./GTH_POTENTIALS
 GLOBAL| MM Potential file name                                     MM_POTENTIAL
 GLOBAL| Coordinate file name           graphene_no_hydrogen_zig-zag_relaxed.xyz
 GLOBAL| Method name                                                        CP2K
 GLOBAL| Project name                                  graphene_zig_zag_BSSE_PBE
 GLOBAL| Run type                                                           BSSE
 GLOBAL| FFT library                                                       FFTW3
 GLOBAL| Diagonalization library                                            ELPA
 GLOBAL| DGEMM library                                                      BLAS
 GLOBAL| Minimum number of eigenvectors for ELPA usage                        16
 GLOBAL| Orthonormality check for eigenvectors                          DISABLED
 GLOBAL| Matrix multiplication library                                 ScaLAPACK
 GLOBAL| All-to-all communication in single precision                          F
 GLOBAL| FFTs using library dependent lengths                                  F
 GLOBAL| Grid backend                                                       AUTO
 GLOBAL| Global print level                                                  LOW
 GLOBAL| MPI I/O enabled                                                       T
 GLOBAL| Total number of message passing processes                            16
 GLOBAL| Number of threads for this process                                    1
 GLOBAL| This output is from process                                           0
 GLOBAL| Stack size for threads created by OpenMP (OMP_STACKSIZE)        default
 GLOBAL| CPU model name                          AMD EPYC 7502 32-Core Processor

 MEMORY| system memory details [Kb]
 MEMORY|                        rank 0           min           max       average
 MEMORY| MemTotal            131834288     131834288     131834288     131834288
 MEMORY| MemFree             125823028     125823028     125823028     125823028
 MEMORY| Buffers                281476        281476        281476        281476
 MEMORY| Cached                1659168       1659164       1659168       1659167
 MEMORY| Slab                   839808        839808        839808        839808
 MEMORY| SReclaimable           209056        209056        209056        209056
 MEMORY| MemLikelyFree       127972728     127972724     127972728     127972727


 GENERATE|  Preliminary Number of Bonds generated:                             0
 GENERATE|  Achieved consistency in connectivity generation.

 *******************************************************************************
 *******************************************************************************
 **                                                                           **
 **     #####                         ##              ##                      **
 **    ##   ##            ##          ##              ##                      **
 **   ##     ##                       ##            ######                    **
 **   ##     ##  ##   ##  ##   #####  ##  ##   ####   ##    #####    #####    **
 **   ##     ##  ##   ##  ##  ##      ## ##   ##      ##   ##   ##  ##   ##   **
 **   ##  ## ##  ##   ##  ##  ##      ####     ###    ##   ######   ######    **
 **    ##  ###   ##   ##  ##  ##      ## ##      ##   ##   ##       ##        **
 **     #######   #####   ##   #####  ##  ##  ####    ##    #####   ##        **
 **           ##                                                    ##        **
 **                                                                           **
 **                                                ... make the atoms dance   **
 **                                                                           **
 **            Copyright (C) by CP2K developers group (2000-2022)             **
 **                      J. Chem. Phys. 152, 194103 (2020)                    **
 **                                                                           **
 *******************************************************************************


 TOTAL NUMBERS AND MAXIMUM NUMBERS

  Total number of            - Atomic kinds:                                   2
                             - Atoms:                                        113
                             - Shell sets:                                   113
                             - Shells:                                       565
                             - Primitive Cartesian functions:                567
                             - Cartesian basis functions:                   1577
                             - Spherical basis functions:                   1465

  Maximum angular momentum of- Orbital basis functions:                        2
                             - Local part of the GTH pseudopotential:          2
                             - Non-local part of the GTH pseudopotential:      1


 SCF PARAMETERS         Density guess:                                    ATOMIC
                        --------------------------------------------------------
                        max_scf:                                             400
                        max_scf_history:                                       0
                        max_diis:                                              4
                        --------------------------------------------------------
                        eps_scf:                                        3.00E-07
                        eps_scf_history:                                0.00E+00
                        eps_diis:                                       1.00E-01
                        eps_eigval:                                     1.00E-05
                        --------------------------------------------------------
                        level_shift [a.u.]:                             0.000000
                        added MOs                                       100  100
                        --------------------------------------------------------
                        Mixing method:                            BROYDEN_MIXING
                                                charge density mixing in g-space
                        --------------------------------------------------------
                        Smear method:                                FERMI_DIRAC
                        Electronic temperature [K]:                        300.0
                        Electronic temperature [a.u.]:                  9.50E-04
                        Accuracy threshold:                             1.00E-10
                        --------------------------------------------------------
                        Outer loop SCF in use 
                        No variables optimised in outer loop
                        eps_scf                                         1.00E-06
                        max_scf                                              100
                        DIIS optimization
                        DIIS buffer length                                     3
                        step_size                                       5.00E-01

 -------------------------------------------------------------------------------
 -                                                                             -
 -  BSSE CALCULATION         FRAGMENT CONF: 11        FRAGMENT SUBCONF: 10     -
 -                           CHARGE =     0           MULTIPLICITY =     0     -
 -                                                                             -
 -                 ATOM INDEX                              ATOM NAME           -
 -                 ----------                              ---------           -
 -                      1                                   C                  -
 -                      2                                   C                  -
 -                      3                                   C                  -
 -                      4                                   C                  -
 -                      5                                   C                  -
 -                      6                                   C                  -
 -                      7                                   C                  -
 -                      8                                   C                  -
 -                      9                                   C                  -
 -                     10                                   C                  -
 -                     11                                   C                  -
 -                     12                                   C                  -
 -                     13                                   C                  -
 -                     14                                   C                  -
 -                     15                                   C                  -
 -                     16                                   C                  -
 -                     17                                   C                  -
 -                     18                                   C                  -
 -                     19                                   C                  -
 -                     20                                   C                  -
 -                     21                                   C                  -
 -                     22                                   C                  -
 -                     23                                   C                  -
 -                     24                                   C                  -
 -                     25                                   C                  -
 -                     26                                   C                  -
 -                     27                                   C                  -
 -                     28                                   C                  -
 -                     29                                   C                  -
 -                     30                                   C                  -
 -                     31                                   C                  -
 -                     32                                   C                  -
 -                     33                                   C                  -
 -                     34                                   C                  -
 -                     35                                   C                  -
 -                     36                                   C                  -
 -                     37                                   C                  -
 -                     38                                   C                  -
 -                     39                                   C                  -
 -                     40                                   C                  -
 -                     41                                   C                  -
 -                     42                                   C                  -
 -                     43                                   C                  -
 -                     44                                   C                  -
 -                     45                                   C                  -
 -                     46                                   C                  -
 -                     47                                   C                  -
 -                     48                                   C                  -
 -                     49                                   C                  -
 -                     50                                   C                  -
 -                     51                                   C                  -
 -                     52                                   C                  -
 -                     53                                   C                  -
 -                     54                                   C                  -
 -                     55                                   C                  -
 -                     56                                   C                  -
 -                     57                                   C                  -
 -                     58                                   C                  -
 -                     59                                   C                  -
 -                     60                                   C                  -
 -                     61                                   C                  -
 -                     62                                   C                  -
 -                     63                                   C                  -
 -                     64                                   C                  -
 -                     65                                   C                  -
 -                     66                                   C                  -
 -                     67                                   C                  -
 -                     68                                   C                  -
 -                     69                                   C                  -
 -                     70                                   C                  -
 -                     71                                   C                  -
 -                     72                                   C                  -
 -                     73                                   C                  -
 -                     74                                   C                  -
 -                     75                                   C                  -
 -                     76                                   C                  -
 -                     77                                   C                  -
 -                     78                                   C                  -
 -                     79                                   C                  -
 -                     80                                   C                  -
 -                     81                                   C                  -
 -                     82                                   C                  -
 -                     83                                   C                  -
 -                     84                                   C                  -
 -                     85                                   C                  -
 -                     86                                   C                  -
 -                     87                                   C                  -
 -                     88                                   C                  -
 -                     89                                   C                  -
 -                     90                                   C                  -
 -                     91                                   C                  -
 -                     92                                   C                  -
 -                     93                                   C                  -
 -                     94                                   C                  -
 -                     95                                   C                  -
 -                     96                                   C                  -
 -                     97                                   C                  -
 -                     98                                   C                  -
 -                     99                                   C                  -
 -                    100                                   C                  -
 -                    101                                   C                  -
 -                    102                                   C                  -
 -                    103                                   C                  -
 -                    104                                   C                  -
 -                    105                                   C                  -
 -                    106                                   C                  -
 -                    107                                   C                  -
 -                    108                                   C                  -
 -                    109                                   C                  -
 -                    110                                   C                  -
 -                    111                                   C                  -
 -                    112                                   C                  -
 -                    113                                   Na_ghost           -
 -------------------------------------------------------------------------------

 *******************************************************************************
 *******************************************************************************
 **                                                                           **
 **     #####                         ##              ##                      **
 **    ##   ##            ##          ##              ##                      **
 **   ##     ##                       ##            ######                    **
 **   ##     ##  ##   ##  ##   #####  ##  ##   ####   ##    #####    #####    **
 **   ##     ##  ##   ##  ##  ##      ## ##   ##      ##   ##   ##  ##   ##   **
 **   ##  ## ##  ##   ##  ##  ##      ####     ###    ##   ######   ######    **
 **    ##  ###   ##   ##  ##  ##      ## ##      ##   ##   ##       ##        **
 **     #######   #####   ##   #####  ##  ##  ####    ##    #####   ##        **
 **           ##                                                    ##        **
 **                                                                           **
 **                                                ... make the atoms dance   **
 **                                                                           **
 **            Copyright (C) by CP2K developers group (2000-2022)             **
 **                      J. Chem. Phys. 152, 194103 (2020)                    **
 **                                                                           **
 *******************************************************************************


 TOTAL NUMBERS AND MAXIMUM NUMBERS

  Total number of            - Atomic kinds:                                   2
                             - Atoms:                                        113
                             - Shell sets:                                   113
                             - Shells:                                       565
                             - Primitive Cartesian functions:                567
                             - Cartesian basis functions:                   1577
                             - Spherical basis functions:                   1465

  Maximum angular momentum of- Orbital basis functions:                        2
                             - Local part of the GTH pseudopotential:          2
                             - Non-local part of the GTH pseudopotential:      0


 SCF PARAMETERS         Density guess:                                    ATOMIC
                        --------------------------------------------------------
                        max_scf:                                             400
                        max_scf_history:                                       0
                        max_diis:                                              4
                        --------------------------------------------------------
                        eps_scf:                                        3.00E-07
                        eps_scf_history:                                0.00E+00
                        eps_diis:                                       1.00E-01
                        eps_eigval:                                     1.00E-05
                        --------------------------------------------------------
                        level_shift [a.u.]:                             0.000000
                        added MOs                                       100  100
                        --------------------------------------------------------
                        Mixing method:                            BROYDEN_MIXING
                                                charge density mixing in g-space
                        --------------------------------------------------------
                        Smear method:                                FERMI_DIRAC
                        Electronic temperature [K]:                        300.0
                        Electronic temperature [a.u.]:                  9.50E-04
                        Accuracy threshold:                             1.00E-10
                        --------------------------------------------------------
                        Outer loop SCF in use 
                        No variables optimised in outer loop
                        eps_scf                                         1.00E-06
                        max_scf                                              100
                        DIIS optimization
                        DIIS buffer length                                     3
                        step_size                                       5.00E-01

 Spin 1

 Number of electrons:                                                        224
 Number of occupied orbitals:                                                224
 Number of molecular orbitals:                                               324

 Spin 2

 Number of electrons:                                                        224
 Number of occupied orbitals:                                                224
 Number of molecular orbitals:                                               324

 Number of orbital functions:                                               1465
 Number of independent orbital functions:                                   1465

 Extrapolation method: initial_guess


 SCF WAVEFUNCTION OPTIMIZATION

  Step     Update method      Time    Convergence         Total energy    Change
  ------------------------------------------------------------------------------
     1 NoMix/Diag. 0.10E+00    5.2     0.46310962      -631.5188450465 -6.32E+02
     2 Broy./Diag. 0.10E+00    8.1     0.10858425      -610.2310247718  2.13E+01
     3 Broy./Diag. 0.10E+00    8.6     0.15564629      -616.6867745500 -6.46E+00
     4 Broy./Diag. 0.10E+00    8.5     0.37570326      -629.3691016867 -1.27E+01
     5 Broy./Diag. 0.10E+00    8.8     0.02238040      -633.7976888747 -4.43E+00
     6 Broy./Diag. 0.10E+00    8.8     0.48258472      -634.2311749468 -4.33E-01
     7 Broy./Diag. 0.10E+00    9.1     0.06260879      -634.7236965516 -4.93E-01
     8 Broy./Diag. 0.10E+00    9.2     0.04323502      -634.8084331440 -8.47E-02
     9 Broy./Diag. 0.10E+00    9.6     0.30520270      -634.9613259775 -1.53E-01
    10 Broy./Diag. 0.10E+00    9.7     0.31362595      -635.1407806061 -1.79E-01
    11 Broy./Diag. 0.10E+00    9.8     0.02775511      -635.3261055076 -1.85E-01
    12 Broy./Diag. 0.10E+00    9.7     0.06952891      -635.3825853417 -5.65E-02
    13 Broy./Diag. 0.10E+00    9.7     0.01044062      -635.4160651276 -3.35E-02
    14 Broy./Diag. 0.10E+00    9.7     0.16993915      -635.5469576206 -1.31E-01
    15 Broy./Diag. 0.10E+00    9.7     0.11097559      -635.6336169748 -8.67E-02
    16 Broy./Diag. 0.10E+00    9.7     0.02721578      -635.6968604881 -6.32E-02
    17 Broy./Diag. 0.10E+00    9.7     0.00109940      -635.7631359472 -6.63E-02
    18 Broy./Diag. 0.10E+00    9.9     0.01276454      -635.8675047668 -1.04E-01
    19 Broy./Diag. 0.10E+00   10.0     0.00680882      -635.9292264233 -6.17E-02
    20 Broy./Diag. 0.10E+00    9.7     0.00720341      -635.9198146776  9.41E-03
    21 Broy./Diag. 0.10E+00    9.8     0.00402955      -635.8955201168  2.43E-02
    22 Broy./Diag. 0.10E+00   10.0     0.00214060      -635.8795099728  1.60E-02
    23 Broy./Diag. 0.10E+00   10.0     0.00324159      -635.8545648185  2.49E-02
    24 Broy./Diag. 0.10E+00    9.6     0.00260098      -635.8480430673  6.52E-03
    25 Broy./Diag. 0.10E+00    9.8     0.00048191      -635.8688055379 -2.08E-02
    26 Broy./Diag. 0.10E+00    9.7     0.00061405      -635.8901577851 -2.14E-02
    27 Broy./Diag. 0.10E+00    9.8     0.00058387      -635.9016535602 -1.15E-02
    28 Broy./Diag. 0.10E+00    9.7     0.00019376      -635.9085913816 -6.94E-03
    29 Broy./Diag. 0.10E+00    9.7     0.00017735      -635.9146678873 -6.08E-03
    30 Broy./Diag. 0.10E+00    9.7     0.00013394      -635.9248068278 -1.01E-02
    31 Broy./Diag. 0.10E+00    9.7     0.00013117      -635.9295240069 -4.72E-03
    32 Broy./Diag. 0.10E+00    9.7     0.00023721      -635.9311314453 -1.61E-03
    33 Broy./Diag. 0.10E+00    9.7     0.00009885      -635.9305512437  5.80E-04
    34 Broy./Diag. 0.10E+00    9.7     0.00008454      -635.9265118635  4.04E-03
    35 Broy./Diag. 0.10E+00    9.7     0.00005746      -635.9275129399 -1.00E-03
    36 Broy./Diag. 0.10E+00    9.7     0.00005718      -635.9306692080 -3.16E-03
    37 Broy./Diag. 0.10E+00    9.7     0.00005601      -635.9332678373 -2.60E-03
    38 Broy./Diag. 0.10E+00    9.7     0.00005612      -635.9335540069 -2.86E-04
    39 Broy./Diag. 0.10E+00    9.6     0.00004210      -635.9335573979 -3.39E-06
    40 Broy./Diag. 0.10E+00    9.7     0.00003580      -635.9346834584 -1.13E-03
    41 Broy./Diag. 0.10E+00    9.6     0.00004083      -635.9356423094 -9.59E-04
    42 Broy./Diag. 0.10E+00    9.7     0.00013612      -635.9359783553 -3.36E-04
    43 Broy./Diag. 0.10E+00    9.6     0.00017576      -635.9356776499  3.01E-04
    44 Broy./Diag. 0.10E+00    9.8     0.00003591      -635.9348976584  7.80E-04
    45 Broy./Diag. 0.10E+00    9.6     0.00005473      -635.9345765381  3.21E-04
    46 Broy./Diag. 0.10E+00    9.8     0.00008064      -635.9351366371 -5.60E-04
    47 Broy./Diag. 0.10E+00    9.7     0.00007935      -635.9360633645 -9.27E-04
    48 Broy./Diag. 0.10E+00    9.9     0.00005785      -635.9363639037 -3.01E-04
    49 Broy./Diag. 0.10E+00    9.7     0.00005119      -635.9359613870  4.03E-04
    50 Broy./Diag. 0.10E+00    9.8     0.00001715      -635.9356595541  3.02E-04
    51 Broy./Diag. 0.10E+00    9.8     0.00001672      -635.9357264999 -6.69E-05
    52 Broy./Diag. 0.10E+00    9.9     0.00009438      -635.9360615812 -3.35E-04
    53 Broy./Diag. 0.10E+00   10.1     0.00003046      -635.9362328925 -1.71E-04
    54 Broy./Diag. 0.10E+00    9.9     0.00006783      -635.9358740713  3.59E-04
    55 Broy./Diag. 0.10E+00    9.9     0.00008149      -635.9355900834  2.84E-04
    56 Broy./Diag. 0.10E+00    9.9     0.00008481      -635.9355576397  3.24E-05
    57 Broy./Diag. 0.10E+00    9.9     0.00013651      -635.9356923199 -1.35E-04
    58 Broy./Diag. 0.10E+00    9.9     0.00005131      -635.9356966273 -4.31E-06
    59 Broy./Diag. 0.10E+00    9.8     0.00008943      -635.9356631489  3.35E-05
    60 Broy./Diag. 0.10E+00    9.9     0.00003568      -635.9356297590  3.34E-05
    61 Broy./Diag. 0.10E+00    9.8     0.00021669      -635.9355680172  6.17E-05
    62 Broy./Diag. 0.10E+00    9.9     0.00012198      -635.9355566638  1.14E-05
    63 Broy./Diag. 0.10E+00    9.8     0.00015685      -635.9355647234 -8.06E-06
    64 Broy./Diag. 0.10E+00    9.9     0.00004991      -635.9355149166  4.98E-05
    65 Broy./Diag. 0.10E+00    9.8     0.00011376      -635.9355027594  1.22E-05
    66 Broy./Diag. 0.10E+00    9.9     0.00024154      -635.9354562320  4.65E-05
    67 Broy./Diag. 0.10E+00    9.8     0.00018467      -635.9354579102 -1.68E-06
    68 Broy./Diag. 0.10E+00    9.9     0.00008627      -635.9354145527  4.34E-05
    69 Broy./Diag. 0.10E+00    9.8     0.00024657      -635.9354656206 -5.11E-05
    70 Broy./Diag. 0.10E+00   10.0     0.00004283      -635.9354323959  3.32E-05
    71 Broy./Diag. 0.10E+00   10.1     0.00000616      -635.9354383382 -5.94E-06
    72 Broy./Diag. 0.10E+00    9.9     0.00002632      -635.9354443418 -6.00E-06
    73 Broy./Diag. 0.10E+00   10.0     0.00017551      -635.9354359880  8.35E-06
    74 Broy./Diag. 0.10E+00    9.9     0.00002708      -635.9354478563 -1.19E-05
    75 Broy./Diag. 0.10E+00    9.9     0.00001533      -635.9354475135  3.43E-07
    76 Broy./Diag. 0.10E+00    9.9     0.00004699      -635.9354356705  1.18E-05
    77 Broy./Diag. 0.10E+00    9.8     0.00007150      -635.9354396605 -3.99E-06
    78 Broy./Diag. 0.10E+00    9.9     0.00002708      -635.9354370146  2.65E-06
    79 Broy./Diag. 0.10E+00    9.8     0.00004000      -635.9354396227 -2.61E-06
    80 Broy./Diag. 0.10E+00    9.9     0.00022237      -635.9354348413  4.78E-06
    81 Broy./Diag. 0.10E+00    9.8     0.00006895      -635.9354080938  2.67E-05
    82 Broy./Diag. 0.10E+00    9.9     0.00007267      -635.9353913310  1.68E-05
    83 Broy./Diag. 0.10E+00    9.8     0.00001936      -635.9354111116 -1.98E-05
    84 Broy./Diag. 0.10E+00    9.9     0.00002204      -635.9354072169  3.89E-06
    85 Broy./Diag. 0.10E+00    9.8     0.00005903      -635.9353852599  2.20E-05
    86 Broy./Diag. 0.10E+00    9.9     0.00002412      -635.9353901673 -4.91E-06
    87 Broy./Diag. 0.10E+00    9.8     0.00001733      -635.9353871918  2.98E-06
    88 Broy./Diag. 0.10E+00    9.9     0.00003769      -635.9353861212  1.07E-06
    89 Broy./Diag. 0.10E+00    9.8     0.00003625      -635.9353958316 -9.71E-06
    90 Broy./Diag. 0.10E+00   10.0     0.00002842      -635.9353917245  4.11E-06
    91 Broy./Diag. 0.10E+00   10.2     0.00000581      -635.9353893048  2.42E-06
    92 Broy./Diag. 0.10E+00    9.9     0.00001906      -635.9353827590  6.55E-06
    93 Broy./Diag. 0.10E+00   10.0     0.00007107      -635.9353763005  6.46E-06
    94 Broy./Diag. 0.10E+00    9.9     0.00001579      -635.9353743663  1.93E-06
    95 Broy./Diag. 0.10E+00    9.9     0.00002143      -635.9353686870  5.68E-06
    96 Broy./Diag. 0.10E+00    9.8     0.00004646      -635.9353695931 -9.06E-07
    97 Broy./Diag. 0.10E+00    9.8     0.00002592      -635.9353670375  2.56E-06
    98 Broy./Diag. 0.10E+00    9.9     0.00004321      -635.9353596153  7.42E-06
    99 Broy./Diag. 0.10E+00    9.8     0.00001333      -635.9353588088  8.06E-07
   100 Broy./Diag. 0.10E+00    9.9     0.00000981      -635.9353561906  2.62E-06
   101 Broy./Diag. 0.10E+00    9.8     0.00002800      -635.9353607805 -4.59E-06
   102 Broy./Diag. 0.10E+00    9.8     0.00000741      -635.9353590013  1.78E-06
   103 Broy./Diag. 0.10E+00    9.8     0.00001377      -635.9353602116 -1.21E-06
   104 Broy./Diag. 0.10E+00    9.9     0.00001841      -635.9353568163  3.40E-06
   105 Broy./Diag. 0.10E+00    9.8     0.00004101      -635.9353539876  2.83E-06
   106 Broy./Diag. 0.10E+00    9.8     0.00002709      -635.9353523529  1.63E-06
   107 Broy./Diag. 0.10E+00    9.9     0.00002773      -635.9353483666  3.99E-06
   108 Broy./Diag. 0.10E+00   10.0     0.00002259      -635.9353534064 -5.04E-06
   109 Broy./Diag. 0.10E+00   10.1     0.00000527      -635.9353537085 -3.02E-07
   110 Broy./Diag. 0.10E+00    9.9     0.00001570      -635.9353523682  1.34E-06
   111 Broy./Diag. 0.10E+00   10.0     0.00000878      -635.9353540622 -1.69E-06
   112 Broy./Diag. 0.10E+00    9.8     0.00001278      -635.9353535093  5.53E-07
   113 Broy./Diag. 0.10E+00    9.8     0.00002037      -635.9353509452  2.56E-06
   114 Broy./Diag. 0.10E+00    9.9     0.00003538      -635.9353543236 -3.38E-06
   115 Broy./Diag. 0.10E+00    9.9     0.00001784      -635.9353550642 -7.41E-07
   116 Broy./Diag. 0.10E+00    9.9     0.00007678      -635.9353594638 -4.40E-06
   117 Broy./Diag. 0.10E+00    9.9     0.00001744      -635.9353534921  5.97E-06
   118 Broy./Diag. 0.10E+00    9.9     0.00001489      -635.9353508668  2.63E-06
   119 Broy./Diag. 0.10E+00    9.8     0.00002329      -635.9353529229 -2.06E-06
   120 Broy./Diag. 0.10E+00    9.8     0.00004616      -635.9353524866  4.36E-07
   121 Broy./Diag. 0.10E+00    9.8     0.00001937      -635.9353494644  3.02E-06
   122 Broy./Diag. 0.10E+00    9.8     0.00001732      -635.9353458847  3.58E-06
   123 Broy./Diag. 0.10E+00    9.8     0.00002373      -635.9353401879  5.70E-06
   124 Broy./Diag. 0.10E+00    9.8     0.00001596      -635.9353426643 -2.48E-06
   125 Broy./Diag. 0.10E+00    9.8     0.00009438      -635.9353394382  3.23E-06
   126 Broy./Diag. 0.10E+00    9.9     0.00001583      -635.9353438321 -4.39E-06
   127 Broy./Diag. 0.10E+00    9.8     0.00002766      -635.9353328126  1.10E-05
   128 Broy./Diag. 0.10E+00    9.9     0.00001398      -635.9353440874 -1.13E-05
   129 Broy./Diag. 0.10E+00    9.8     0.00008276      -635.9353349702  9.12E-06
   130 Broy./Diag. 0.10E+00    9.9     0.00004772      -635.9353469847 -1.20E-05
   131 Broy./Diag. 0.10E+00    9.9     0.00000505      -635.9353495714 -2.59E-06
   132 Broy./Diag. 0.10E+00   10.0     0.00001263      -635.9353461710  3.40E-06
   133 Broy./Diag. 0.10E+00   10.2     0.00003043      -635.9353482451 -2.07E-06
   134 Broy./Diag. 0.10E+00    9.9     0.00000847      -635.9353529238 -4.68E-06
   135 Broy./Diag. 0.10E+00   10.0     0.00000872      -635.9353530573 -1.33E-07
   136 Broy./Diag. 0.10E+00   10.2     0.00000531      -635.9353500604  3.00E-06
   137 Broy./Diag. 0.10E+00   10.1     0.00002867      -635.9353435517  6.51E-06
   138 Broy./Diag. 0.10E+00    9.7     0.00001423      -635.9353435055  4.61E-08
   139 Broy./Diag. 0.10E+00    9.9     0.00002160      -635.9353353173  8.19E-06
   140 Broy./Diag. 0.10E+00    9.7     0.00000828      -635.9353300618  5.26E-06
   141 Broy./Diag. 0.10E+00    9.9     0.00003116      -635.9353351805 -5.12E-06
   142 Broy./Diag. 0.10E+00    9.7     0.00004382      -635.9353352676 -8.71E-08
   143 Broy./Diag. 0.10E+00    9.9     0.00002538      -635.9353332535  2.01E-06
   144 Broy./Diag. 0.10E+00    9.7     0.00001146      -635.9353315375  1.72E-06
   145 Broy./Diag. 0.10E+00    9.9     0.00003703      -635.9353341234 -2.59E-06
   146 Broy./Diag. 0.10E+00    9.7     0.00001090      -635.9353334767  6.47E-07
   147 Broy./Diag. 0.10E+00    9.9     0.00002435      -635.9353340050 -5.28E-07
   148 Broy./Diag. 0.10E+00    9.7     0.00002007      -635.9353305142  3.49E-06
   149 Broy./Diag. 0.10E+00    9.9     0.00001515      -635.9353258893  4.62E-06
   150 Broy./Diag. 0.10E+00    9.7     0.00000655      -635.9353241656  1.72E-06
   151 Broy./Diag. 0.10E+00    9.9     0.00000592      -635.9353174412  6.72E-06
   152 Broy./Diag. 0.10E+00    9.7     0.00003353      -635.9353027130  1.47E-05
   153 Broy./Diag. 0.10E+00    9.9     0.00001059      -635.9353035685 -8.55E-07
   154 Broy./Diag. 0.10E+00    9.8     0.00003732      -635.9353026730  8.95E-07
   155 Broy./Diag. 0.10E+00    9.9     0.00001724      -635.9352974371  5.24E-06
   156 Broy./Diag. 0.10E+00    9.8     0.00001344      -635.9352974534 -1.62E-08
   157 Broy./Diag. 0.10E+00   10.0     0.00000736      -635.9352950575  2.40E-06
   158 Broy./Diag. 0.10E+00   10.1     0.00000861      -635.9352919713  3.09E-06
   159 Broy./Diag. 0.10E+00    9.9     0.00002237      -635.9352896888  2.28E-06
   160 Broy./Diag. 0.10E+00    9.9     0.00000500      -635.9352904316 -7.43E-07
   161 Broy./Diag. 0.10E+00    9.8     0.00001159      -635.9352950437 -4.61E-06
   162 Broy./Diag. 0.10E+00    9.8     0.00000383      -635.9352967243 -1.68E-06
   163 Broy./Diag. 0.10E+00    9.8     0.00001229      -635.9352999919 -3.27E-06
   164 Broy./Diag. 0.10E+00    9.7     0.00001542      -635.9352974489  2.54E-06
   165 Broy./Diag. 0.10E+00    9.9     0.00001129      -635.9352972882  1.61E-07
   166 Broy./Diag. 0.10E+00    9.7     0.00002939      -635.9352985909 -1.30E-06
   167 Broy./Diag. 0.10E+00    9.9     0.00000575      -635.9352964377  2.15E-06
   168 Broy./Diag. 0.10E+00    9.7     0.00000272      -635.9352968137 -3.76E-07
   169 Broy./Diag. 0.10E+00    9.9     0.00000936      -635.9352976137 -8.00E-07
   170 Broy./Diag. 0.10E+00    9.8     0.00000140      -635.9352978262 -2.13E-07
   171 Broy./Diag. 0.10E+00    9.9     0.00000888      -635.9352964160  1.41E-06
   172 Broy./Diag. 0.10E+00    9.8     0.00000669      -635.9352943768  2.04E-06
   173 Broy./Diag. 0.10E+00    9.9     0.00001121      -635.9352964733 -2.10E-06
   174 Broy./Diag. 0.10E+00   10.1     0.00000924      -635.9352942346  2.24E-06
   175 Broy./Diag. 0.10E+00    9.8     0.00000342      -635.9352953196 -1.09E-06
   176 Broy./Diag. 0.10E+00    9.9     0.00003995      -635.9352897099  5.61E-06
   177 Broy./Diag. 0.10E+00    9.8     0.00002653      -635.9352910304 -1.32E-06
   178 Broy./Diag. 0.10E+00    9.8     0.00002894      -635.9352924065 -1.38E-06
   179 Broy./Diag. 0.10E+00    9.8     0.00004318      -635.9352834469  8.96E-06
   180 Broy./Diag. 0.10E+00    9.8     0.00001863      -635.9352896022 -6.16E-06
   181 Broy./Diag. 0.10E+00    9.9     0.00002457      -635.9352872112  2.39E-06
   182 Broy./Diag. 0.10E+00    9.8     0.00001092      -635.9352877752 -5.64E-07
   183 Broy./Diag. 0.10E+00    9.9     0.00001368      -635.9352890451 -1.27E-06
   184 Broy./Diag. 0.10E+00    9.8     0.00003924      -635.9352865803  2.46E-06
   185 Broy./Diag. 0.10E+00    9.9     0.00001205      -635.9352851163  1.46E-06
   186 Broy./Diag. 0.10E+00    9.8     0.00003274      -635.9352818733  3.24E-06
   187 Broy./Diag. 0.10E+00    9.9     0.00002132      -635.9352775296  4.34E-06
   188 Broy./Diag. 0.10E+00    9.8     0.00001664      -635.9352757947  1.73E-06
   189 Broy./Diag. 0.10E+00    9.9     0.00000797      -635.9352762413 -4.47E-07
   190 Broy./Diag. 0.10E+00    9.8     0.00000236      -635.9352755048  7.37E-07
   191 Broy./Diag. 0.10E+00    9.9     0.00000983      -635.9352735170  1.99E-06
   192 Broy./Diag. 0.10E+00    9.8     0.00001334      -635.9352690932  4.42E-06
   193 Broy./Diag. 0.10E+00    9.9     0.00002177      -635.9352711835 -2.09E-06
   194 Broy./Diag. 0.10E+00    9.8     0.00003832      -635.9352708233  3.60E-07
   195 Broy./Diag. 0.10E+00   10.0     0.00000418      -635.9352672660  3.56E-06
   196 Broy./Diag. 0.10E+00   10.1     0.00001277      -635.9352621346  5.13E-06
   197 Broy./Diag. 0.10E+00    9.9     0.00000116      -635.9352580486  4.09E-06
   198 Broy./Diag. 0.10E+00    9.9     0.00001062      -635.9352574779  5.71E-07
   199 Broy./Diag. 0.10E+00    9.8     0.00002409      -635.9352579804 -5.02E-07
   200 Broy./Diag. 0.10E+00    9.8     0.00001908      -635.9352583185 -3.38E-07
   201 Broy./Diag. 0.10E+00    9.8     0.00001040      -635.9352590098 -6.91E-07
   202 Broy./Diag. 0.10E+00    9.8     0.00000667      -635.9352569535  2.06E-06
   203 Broy./Diag. 0.10E+00    9.8     0.00001213      -635.9352571320 -1.78E-07
   204 Broy./Diag. 0.10E+00    9.8     0.00001627      -635.9352587105 -1.58E-06
   205 Broy./Diag. 0.10E+00    9.8     0.00000739      -635.9352569973  1.71E-06
   206 Broy./Diag. 0.10E+00    9.8     0.00001619      -635.9352537420  3.26E-06
   207 Broy./Diag. 0.10E+00    9.9     0.00002346      -635.9352492793  4.46E-06
   208 Broy./Diag. 0.10E+00    9.7     0.00002134      -635.9352474696  1.81E-06
   209 Broy./Diag. 0.10E+00    9.9     0.00003253      -635.9352447096  2.76E-06
   210 Broy./Diag. 0.10E+00    9.8     0.00001631      -635.9352472891 -2.58E-06
   211 Broy./Diag. 0.10E+00    9.9     0.00001421      -635.9352466472  6.42E-07
   212 Broy./Diag. 0.10E+00   10.1     0.00000597      -635.9352470034 -3.56E-07
   213 Broy./Diag. 0.10E+00    9.9     0.00000884      -635.9352460599  9.43E-07
   214 Broy./Diag. 0.10E+00    9.9     0.00000583      -635.9352460622 -2.24E-09
   215 Broy./Diag. 0.10E+00    9.8     0.00000402      -635.9352463998 -3.38E-07
   216 Broy./Diag. 0.10E+00    9.8     0.00000750      -635.9352449599  1.44E-06
   217 Broy./Diag. 0.10E+00    9.8     0.00000465      -635.9352446259  3.34E-07
   218 Broy./Diag. 0.10E+00    9.8     0.00002298      -635.9352444050  2.21E-07
   219 Broy./Diag. 0.10E+00    9.9     0.00000358      -635.9352422053  2.20E-06
   220 Broy./Diag. 0.10E+00    9.8     0.00001408      -635.9352404638  1.74E-06
   221 Broy./Diag. 0.10E+00    9.9     0.00002473      -635.9352385807  1.88E-06
   222 Broy./Diag. 0.10E+00    9.7     0.00003145      -635.9352371787  1.40E-06
   223 Broy./Diag. 0.10E+00    9.9     0.00003299      -635.9352349201  2.26E-06
   224 Broy./Diag. 0.10E+00    9.8     0.00001466      -635.9352360599 -1.14E-06
   225 Broy./Diag. 0.10E+00    9.9     0.00000505      -635.9352377081 -1.65E-06
   226 Broy./Diag. 0.10E+00    9.8     0.00001159      -635.9352366450  1.06E-06
   227 Broy./Diag. 0.10E+00    9.9     0.00002133      -635.9352316973  4.95E-06
   228 Broy./Diag. 0.10E+00    9.8     0.00001366      -635.9352326325 -9.35E-07
   229 Broy./Diag. 0.10E+00    9.9     0.00001600      -635.9352307477  1.88E-06
   230 Broy./Diag. 0.10E+00    9.8     0.00000392      -635.9352303226  4.25E-07
   231 Broy./Diag. 0.10E+00    9.9     0.00000219      -635.9352296967  6.26E-07
   232 Broy./Diag. 0.10E+00    9.8     0.00000647      -635.9352265364  3.16E-06
   233 Broy./Diag. 0.10E+00    9.9     0.00000575      -635.9352250417  1.49E-06
   234 Broy./Diag. 0.10E+00    9.8     0.00001761      -635.9352236871  1.35E-06
   235 Broy./Diag. 0.10E+00   10.0     0.00000362      -635.9352241765 -4.89E-07
   236 Broy./Diag. 0.10E+00   10.1     0.00001378      -635.9352195572  4.62E-06
   237 Broy./Diag. 0.10E+00    9.9     0.00005105      -635.9352071379  1.24E-05
   238 Broy./Diag. 0.10E+00   10.0     0.00002726      -635.9352081991 -1.06E-06
   239 Broy./Diag. 0.10E+00    9.8     0.00000765      -635.9352091967 -9.98E-07
   240 Broy./Diag. 0.10E+00    9.9     0.00001934      -635.9352101935 -9.97E-07
   241 Broy./Diag. 0.10E+00    9.8     0.00001975      -635.9352073828  2.81E-06
   242 Broy./Diag. 0.10E+00    9.8     0.00002045      -635.9352093985 -2.02E-06
   243 Broy./Diag. 0.10E+00    9.8     0.00002661      -635.9352102206 -8.22E-07
   244 Broy./Diag. 0.10E+00    9.8     0.00001636      -635.9352066819  3.54E-06
   245 Broy./Diag. 0.10E+00    9.8     0.00002630      -635.9351997839  6.90E-06
   246 Broy./Diag. 0.10E+00    9.8     0.00001369      -635.9352020295 -2.25E-06
   247 Broy./Diag. 0.10E+00    9.9     0.00000912      -635.9352019652  6.43E-08
   248 Broy./Diag. 0.10E+00    9.8     0.00001459      -635.9352009215  1.04E-06
   249 Broy./Diag. 0.10E+00    9.8     0.00000541      -635.9352005487  3.73E-07
   250 Broy./Diag. 0.10E+00    9.8     0.00000435      -635.9352008166 -2.68E-07
   251 Broy./Diag. 0.10E+00   10.0     0.00000356      -635.9352001071  7.10E-07
   252 Broy./Diag. 0.10E+00   10.1     0.00000531      -635.9352005129 -4.06E-07
   253 Broy./Diag. 0.10E+00    9.8     0.00000272      -635.9352009383 -4.25E-07
   254 Broy./Diag. 0.10E+00   10.0     0.00000454      -635.9352008449  9.34E-08
   255 Broy./Diag. 0.10E+00    9.8     0.00000787      -635.9352006407  2.04E-07
   256 Broy./Diag. 0.10E+00    9.8     0.00000078      -635.9351998161  8.25E-07
   257 Broy./Diag. 0.10E+00    9.9     0.00000483      -635.9351976814  2.13E-06
   258 Broy./Diag. 0.10E+00    9.8     0.00001073      -635.9351964703  1.21E-06
   259 Broy./Diag. 0.10E+00    9.9     0.00001438      -635.9351958985  5.72E-07
   260 Broy./Diag. 0.10E+00    9.8     0.00000268      -635.9351961472 -2.49E-07
   261 Broy./Diag. 0.10E+00    9.8     0.00000418      -635.9351956894  4.58E-07
   262 Broy./Diag. 0.10E+00    9.8     0.00000858      -635.9351966012 -9.12E-07
   263 Broy./Diag. 0.10E+00    9.8     0.00000799      -635.9351969836 -3.82E-07
   264 Broy./Diag. 0.10E+00    9.8     0.00001056      -635.9351966344  3.49E-07
   265 Broy./Diag. 0.10E+00    9.8     0.00001981      -635.9351968235 -1.89E-07
   266 Broy./Diag. 0.10E+00    9.8     0.00000384      -635.9351961459  6.78E-07
   267 Broy./Diag. 0.10E+00    9.8     0.00000203      -635.9351964401 -2.94E-07
   268 Broy./Diag. 0.10E+00    9.8     0.00000543      -635.9351959044  5.36E-07
   269 Broy./Diag. 0.10E+00    9.8     0.00000399      -635.9351957874  1.17E-07
   270 Broy./Diag. 0.10E+00    9.8     0.00000449      -635.9351954249  3.62E-07
   271 Broy./Diag. 0.10E+00    9.8     0.00000475      -635.9351960175 -5.93E-07
   272 Broy./Diag. 0.10E+00    9.8     0.00000808      -635.9351957180  3.00E-07
   273 Broy./Diag. 0.10E+00    9.8     0.00000509      -635.9351957824 -6.44E-08
   274 Broy./Diag. 0.10E+00    9.8     0.00000729      -635.9351949719  8.11E-07
   275 Broy./Diag. 0.10E+00    9.8     0.00000476      -635.9351950092 -3.73E-08
   276 Broy./Diag. 0.10E+00    9.6     0.00000673      -635.9351952945 -2.85E-07
   277 Broy./Diag. 0.10E+00   10.0     0.00000571      -635.9351939886  1.31E-06
   278 Broy./Diag. 0.10E+00   10.1     0.00001031      -635.9351898685  4.12E-06
   279 Broy./Diag. 0.10E+00    9.8     0.00000869      -635.9351894998  3.69E-07
   280 Broy./Diag. 0.10E+00    9.7     0.00000102      -635.9351898159 -3.16E-07
   281 Broy./Diag. 0.10E+00    9.7     0.00000913      -635.9351884775  1.34E-06
   282 Broy./Diag. 0.10E+00    9.9     0.00000691      -635.9351877388  7.39E-07
   283 Broy./Diag. 0.10E+00    9.9     0.00000230      -635.9351882802 -5.41E-07
   284 Broy./Diag. 0.10E+00   10.0     0.00000438      -635.9351883867 -1.06E-07
   285 Broy./Diag. 0.10E+00   10.0     0.00000282      -635.9351882924  9.43E-08
   286 Broy./Diag. 0.10E+00   10.4     0.00000124      -635.9351883206 -2.82E-08
   287 Broy./Diag. 0.10E+00   10.4     0.00000639      -635.9351889126 -5.92E-07
   288 Broy./Diag. 0.10E+00   10.4     0.00000607      -635.9351860459  2.87E-06
   289 Broy./Diag. 0.10E+00   10.4     0.00000450      -635.9351871383 -1.09E-06
   290 Broy./Diag. 0.10E+00   10.4     0.00000495      -635.9351871010  3.73E-08
   291 Broy./Diag. 0.10E+00   10.3     0.00000472      -635.9351879081 -8.07E-07
   292 Broy./Diag. 0.10E+00   10.3     0.00000556      -635.9351865122  1.40E-06
   293 Broy./Diag. 0.10E+00    9.7     0.00000632      -635.9351847292  1.78E-06
   294 Broy./Diag. 0.10E+00    9.9     0.00000352      -635.9351845633  1.66E-07
   295 Broy./Diag. 0.10E+00    9.7     0.00002107      -635.9351841626  4.01E-07
   296 Broy./Diag. 0.10E+00   10.1     0.00000273      -635.9351839251  2.38E-07
   297 Broy./Diag. 0.10E+00   10.0     0.00000305      -635.9351837635  1.62E-07
   298 Broy./Diag. 0.10E+00    9.7     0.00001121      -635.9351829186  8.45E-07
   299 Broy./Diag. 0.10E+00    9.8     0.00000176      -635.9351834320 -5.13E-07
   300 Broy./Diag. 0.10E+00   10.1     0.00001040      -635.9351814981  1.93E-06
   301 Broy./Diag. 0.10E+00    9.8     0.00000621      -635.9351813157  1.82E-07
   302 Broy./Diag. 0.10E+00    9.7     0.00000490      -635.9351809869  3.29E-07
   303 Broy./Diag. 0.10E+00   10.1     0.00000262      -635.9351808370  1.50E-07
   304 Broy./Diag. 0.10E+00    9.9     0.00000307      -635.9351809443 -1.07E-07
   305 Broy./Diag. 0.10E+00    9.7     0.00000241      -635.9351808538  9.05E-08
   306 Broy./Diag. 0.10E+00   10.1     0.00000896      -635.9351797437  1.11E-06
   307 Broy./Diag. 0.10E+00   10.0     0.00000389      -635.9351812561 -1.51E-06
   308 Broy./Diag. 0.10E+00    9.7     0.00000391      -635.9351818512 -5.95E-07
   309 Broy./Diag. 0.10E+00   10.0     0.00000344      -635.9351815610  2.90E-07
   310 Broy./Diag. 0.10E+00   10.0     0.00001423      -635.9351816344 -7.35E-08
   311 Broy./Diag. 0.10E+00    9.7     0.00000811      -635.9351814824  1.52E-07
   312 Broy./Diag. 0.10E+00    9.9     0.00000515      -635.9351818107 -3.28E-07
   313 Broy./Diag. 0.10E+00   10.0     0.00000403      -635.9351815521  2.59E-07
   314 Broy./Diag. 0.10E+00    9.8     0.00000441      -635.9351816218 -6.97E-08
   315 Broy./Diag. 0.10E+00    9.8     0.00000335      -635.9351817282 -1.06E-07
   316 Broy./Diag. 0.10E+00   10.1     0.00000245      -635.9351813918  3.36E-07
   317 Broy./Diag. 0.10E+00    9.8     0.00000484      -635.9351819110 -5.19E-07
   318 Broy./Diag. 0.10E+00    9.7     0.00000753      -635.9351826774 -7.66E-07
   319 Broy./Diag. 0.10E+00   10.1     0.00001768      -635.9351792100  3.47E-06
   320 Broy./Diag. 0.10E+00    9.8     0.00000401      -635.9351799967 -7.87E-07
   321 Broy./Diag. 0.10E+00    9.8     0.00000318      -635.9351800438 -4.71E-08
   322 Broy./Diag. 0.10E+00   10.1     0.00000860      -635.9351787898  1.25E-06
   323 Broy./Diag. 0.10E+00    9.8     0.00000610      -635.9351784898  3.00E-07
   324 Broy./Diag. 0.10E+00    9.7     0.00000338      -635.9351786268 -1.37E-07
   325 Broy./Diag. 0.10E+00   10.1     0.00000821      -635.9351790830 -4.56E-07
   326 Broy./Diag. 0.10E+00    9.8     0.00001618      -635.9351771265  1.96E-06
   327 Broy./Diag. 0.10E+00    9.7     0.00000747      -635.9351765951  5.31E-07
   328 Broy./Diag. 0.10E+00   10.1     0.00000622      -635.9351769930 -3.98E-07
   329 Broy./Diag. 0.10E+00   10.0     0.00000421      -635.9351758694  1.12E-06
   330 Broy./Diag. 0.10E+00    9.7     0.00001124      -635.9351764465 -5.77E-07
   331 Broy./Diag. 0.10E+00   10.1     0.00000827      -635.9351762234  2.23E-07
   332 Broy./Diag. 0.10E+00    9.9     0.00001926      -635.9351762376 -1.42E-08
   333 Broy./Diag. 0.10E+00    9.7     0.00000588      -635.9351760093  2.28E-07
   334 Broy./Diag. 0.10E+00    9.9     0.00000277      -635.9351761474 -1.38E-07
   335 Broy./Diag. 0.10E+00   10.0     0.00000398      -635.9351763925 -2.45E-07
   336 Broy./Diag. 0.10E+00    9.8     0.00000693      -635.9351754977  8.95E-07
   337 Broy./Diag. 0.10E+00    9.8     0.00000885      -635.9351742314  1.27E-06
   338 Broy./Diag. 0.10E+00   10.1     0.00000255      -635.9351739076  3.24E-07
   339 Broy./Diag. 0.10E+00    9.9     0.00001280      -635.9351735794  3.28E-07
   340 Broy./Diag. 0.10E+00    9.7     0.00000340      -635.9351727906  7.89E-07
   341 Broy./Diag. 0.10E+00   10.1     0.00000798      -635.9351716150  1.18E-06
   342 Broy./Diag. 0.10E+00    9.9     0.00000096      -635.9351717430 -1.28E-07
   343 Broy./Diag. 0.10E+00    9.9     0.00000503      -635.9351708111  9.32E-07
   344 Broy./Diag. 0.10E+00   10.1     0.00000936      -635.9351696045  1.21E-06
   345 Broy./Diag. 0.10E+00    9.9     0.00000151      -635.9351701083 -5.04E-07
   346 Broy./Diag. 0.10E+00    9.7     0.00000055      -635.9351697093  3.99E-07
   347 Broy./Diag. 0.10E+00    9.8     0.00000071      -635.9351692359  4.73E-07
   348 Broy./Diag. 0.10E+00    9.7     0.00000187      -635.9351690661  1.70E-07
   349 Broy./Diag. 0.10E+00    9.9     0.00000280      -635.9351693486 -2.83E-07
   350 Broy./Diag. 0.10E+00    9.6     0.00000259      -635.9351689719  3.77E-07
   351 Broy./Diag. 0.10E+00    9.9     0.00000547      -635.9351693312 -3.59E-07
   352 Broy./Diag. 0.10E+00    9.7     0.00000255      -635.9351693339 -2.73E-09
   353 Broy./Diag. 0.10E+00    9.8     0.00000228      -635.9351692509  8.30E-08
   354 Broy./Diag. 0.10E+00    9.7     0.00000455      -635.9351692244  2.65E-08
   355 Broy./Diag. 0.10E+00    9.8     0.00000475      -635.9351693063 -8.20E-08
   356 Broy./Diag. 0.10E+00    9.6     0.00000092      -635.9351693019  4.41E-09
   357 Broy./Diag. 0.10E+00    9.9     0.00000629      -635.9351694922 -1.90E-07
   358 Broy./Diag. 0.10E+00    9.6     0.00000206      -635.9351692346  2.58E-07
   359 Broy./Diag. 0.10E+00    9.9     0.00000587      -635.9351694659 -2.31E-07
   360 Broy./Diag. 0.10E+00    9.6     0.00000316      -635.9351694001  6.58E-08
   361 Broy./Diag. 0.10E+00    9.8     0.00000181      -635.9351695079 -1.08E-07
   362 Broy./Diag. 0.10E+00    9.6     0.00000058      -635.9351694430  6.49E-08
   363 Broy./Diag. 0.10E+00    9.9     0.00000164      -635.9351693468  9.62E-08
   364 Broy./Diag. 0.10E+00    9.6     0.00000451      -635.9351698521 -5.05E-07
   365 Broy./Diag. 0.10E+00    9.9     0.00000264      -635.9351699945 -1.42E-07
   366 Broy./Diag. 0.10E+00    9.7     0.00000258      -635.9351697987  1.96E-07
   367 Broy./Diag. 0.10E+00    9.8     0.00000134      -635.9351699251 -1.26E-07
   368 Broy./Diag. 0.10E+00    9.6     0.00000276      -635.9351697310  1.94E-07
   369 Broy./Diag. 0.10E+00    9.8     0.00000423      -635.9351685334  1.20E-06
   370 Broy./Diag. 0.10E+00    9.6     0.00000407      -635.9351679554  5.78E-07
   371 Broy./Diag. 0.10E+00    9.9     0.00000252      -635.9351681300 -1.75E-07
   372 Broy./Diag. 0.10E+00    9.6     0.00000066      -635.9351680862  4.38E-08
   373 Broy./Diag. 0.10E+00    9.9     0.00000202      -635.9351682224 -1.36E-07
   374 Broy./Diag. 0.10E+00    9.7     0.00000137      -635.9351681396  8.29E-08
   375 Broy./Diag. 0.10E+00    9.8     0.00000163      -635.9351680139  1.26E-07
   376 Broy./Diag. 0.10E+00   10.1     0.00000622      -635.9351674232  5.91E-07
   377 Broy./Diag. 0.10E+00    9.9     0.00000153      -635.9351675410 -1.18E-07
   378 Broy./Diag. 0.10E+00    9.7     0.00000100      -635.9351674256  1.15E-07
   379 Broy./Diag. 0.10E+00    9.9     0.00000236      -635.9351676115 -1.86E-07
   380 Broy./Diag. 0.10E+00    9.7     0.00000229      -635.9351675829  2.86E-08
   381 Broy./Diag. 0.10E+00    9.8     0.00000154      -635.9351673857  1.97E-07
   382 Broy./Diag. 0.10E+00    9.6     0.00000192      -635.9351672663  1.19E-07
   383 Broy./Diag. 0.10E+00    9.8     0.00000021      -635.9351672515  1.48E-08

  *** SCF run converged in   383 steps ***


  Electronic density on regular grids:       -448.0000000000        0.0000000000
  Core density on regular grids:              447.9999999996       -0.0000000004
  Total charge density on r-space grids:       -0.0000000003
  Total charge density g-space grids:          -0.0000000003

  Overlap energy of the core charge distribution:               0.00001865557362
  Self energy of the core charge distribution:              -1493.52088779770361
  Core Hamiltonian energy:                                    464.65527526842124
  Hartree energy:                                             587.12071596344981
  Exchange-correlation energy:                               -194.06577621661020
  Dispersion energy:                                           -0.11774154511310
  Electronic entropic energy:                                  -0.00677157962816
  Fermi energy:                                                -0.15846606603869

  Total energy:                                              -635.93516725149300

  outer SCF iter =    1 RMS gradient =   0.21E-06 energy =       -635.9351672515
  outer SCF loop converged in   1 iterations or  383 steps


  Integrated absolute spin density  :                               0.0003022732
  WARNING: S**2 computation does not yet treat fractional occupied orbitals

 *** WARNING in qs_loc_utils.F:1500 :: User requested the calculation of ***
 *** the localized wavefunction but the section LOCALIZE was not         ***
 *** specified. Localization will not be performed!                      ***


 -------------------------------------------------------------------------------
 -                                                                             -
 -  BSSE CALCULATION         FRAGMENT CONF: 11        FRAGMENT SUBCONF: 01     -
 -                           CHARGE =     0           MULTIPLICITY =     0     -
 -                                                                             -
 -                 ATOM INDEX                              ATOM NAME           -
 -                 ----------                              ---------           -
 -                      1                                   C_ghost            -
 -                      2                                   C_ghost            -
 -                      3                                   C_ghost            -
 -                      4                                   C_ghost            -
 -                      5                                   C_ghost            -
 -                      6                                   C_ghost            -
 -                      7                                   C_ghost            -
 -                      8                                   C_ghost            -
 -                      9                                   C_ghost            -
 -                     10                                   C_ghost            -
 -                     11                                   C_ghost            -
 -                     12                                   C_ghost            -
 -                     13                                   C_ghost            -
 -                     14                                   C_ghost            -
 -                     15                                   C_ghost            -
 -                     16                                   C_ghost            -
 -                     17                                   C_ghost            -
 -                     18                                   C_ghost            -
 -                     19                                   C_ghost            -
 -                     20                                   C_ghost            -
 -                     21                                   C_ghost            -
 -                     22                                   C_ghost            -
 -                     23                                   C_ghost            -
 -                     24                                   C_ghost            -
 -                     25                                   C_ghost            -
 -                     26                                   C_ghost            -
 -                     27                                   C_ghost            -
 -                     28                                   C_ghost            -
 -                     29                                   C_ghost            -
 -                     30                                   C_ghost            -
 -                     31                                   C_ghost            -
 -                     32                                   C_ghost            -
 -                     33                                   C_ghost            -
 -                     34                                   C_ghost            -
 -                     35                                   C_ghost            -
 -                     36                                   C_ghost            -
 -                     37                                   C_ghost            -
 -                     38                                   C_ghost            -
 -                     39                                   C_ghost            -
 -                     40                                   C_ghost            -
 -                     41                                   C_ghost            -
 -                     42                                   C_ghost            -
 -                     43                                   C_ghost            -
 -                     44                                   C_ghost            -
 -                     45                                   C_ghost            -
 -                     46                                   C_ghost            -
 -                     47                                   C_ghost            -
 -                     48                                   C_ghost            -
 -                     49                                   C_ghost            -
 -                     50                                   C_ghost            -
 -                     51                                   C_ghost            -
 -                     52                                   C_ghost            -
 -                     53                                   C_ghost            -
 -                     54                                   C_ghost            -
 -                     55                                   C_ghost            -
 -                     56                                   C_ghost            -
 -                     57                                   C_ghost            -
 -                     58                                   C_ghost            -
 -                     59                                   C_ghost            -
 -                     60                                   C_ghost            -
 -                     61                                   C_ghost            -
 -                     62                                   C_ghost            -
 -                     63                                   C_ghost            -
 -                     64                                   C_ghost            -
 -                     65                                   C_ghost            -
 -                     66                                   C_ghost            -
 -                     67                                   C_ghost            -
 -                     68                                   C_ghost            -
 -                     69                                   C_ghost            -
 -                     70                                   C_ghost            -
 -                     71                                   C_ghost            -
 -                     72                                   C_ghost            -
 -                     73                                   C_ghost            -
 -                     74                                   C_ghost            -
 -                     75                                   C_ghost            -
 -                     76                                   C_ghost            -
 -                     77                                   C_ghost            -
 -                     78                                   C_ghost            -
 -                     79                                   C_ghost            -
 -                     80                                   C_ghost            -
 -                     81                                   C_ghost            -
 -                     82                                   C_ghost            -
 -                     83                                   C_ghost            -
 -                     84                                   C_ghost            -
 -                     85                                   C_ghost            -
 -                     86                                   C_ghost            -
 -                     87                                   C_ghost            -
 -                     88                                   C_ghost            -
 -                     89                                   C_ghost            -
 -                     90                                   C_ghost            -
 -                     91                                   C_ghost            -
 -                     92                                   C_ghost            -
 -                     93                                   C_ghost            -
 -                     94                                   C_ghost            -
 -                     95                                   C_ghost            -
 -                     96                                   C_ghost            -
 -                     97                                   C_ghost            -
 -                     98                                   C_ghost            -
 -                     99                                   C_ghost            -
 -                    100                                   C_ghost            -
 -                    101                                   C_ghost            -
 -                    102                                   C_ghost            -
 -                    103                                   C_ghost            -
 -                    104                                   C_ghost            -
 -                    105                                   C_ghost            -
 -                    106                                   C_ghost            -
 -                    107                                   C_ghost            -
 -                    108                                   C_ghost            -
 -                    109                                   C_ghost            -
 -                    110                                   C_ghost            -
 -                    111                                   C_ghost            -
 -                    112                                   C_ghost            -
 -                    113                                   Na                 -
 -------------------------------------------------------------------------------

 *******************************************************************************
 *******************************************************************************
 **                                                                           **
 **     #####                         ##              ##                      **
 **    ##   ##            ##          ##              ##                      **
 **   ##     ##                       ##            ######                    **
 **   ##     ##  ##   ##  ##   #####  ##  ##   ####   ##    #####    #####    **
 **   ##     ##  ##   ##  ##  ##      ## ##   ##      ##   ##   ##  ##   ##   **
 **   ##  ## ##  ##   ##  ##  ##      ####     ###    ##   ######   ######    **
 **    ##  ###   ##   ##  ##  ##      ## ##      ##   ##   ##       ##        **
 **     #######   #####   ##   #####  ##  ##  ####    ##    #####   ##        **
 **           ##                                                    ##        **
 **                                                                           **
 **                                                ... make the atoms dance   **
 **                                                                           **
 **            Copyright (C) by CP2K developers group (2000-2022)             **
 **                      J. Chem. Phys. 152, 194103 (2020)                    **
 **                                                                           **
 *******************************************************************************


 TOTAL NUMBERS AND MAXIMUM NUMBERS

  Total number of            - Atomic kinds:                                   2
                             - Atoms:                                        113
                             - Shell sets:                                   113
                             - Shells:                                       565
                             - Primitive Cartesian functions:                567
                             - Cartesian basis functions:                   1577
                             - Spherical basis functions:                   1465

  Maximum angular momentum of- Orbital basis functions:                        2
                             - Local part of the GTH pseudopotential:          2
                             - Non-local part of the GTH pseudopotential:      1


 SCF PARAMETERS         Density guess:                                    ATOMIC
                        --------------------------------------------------------
                        max_scf:                                             400
                        max_scf_history:                                       0
                        max_diis:                                              4
                        --------------------------------------------------------
                        eps_scf:                                        3.00E-07
                        eps_scf_history:                                0.00E+00
                        eps_diis:                                       1.00E-01
                        eps_eigval:                                     1.00E-05
                        --------------------------------------------------------
                        level_shift [a.u.]:                             0.000000
                        added MOs                                       100  100
                        --------------------------------------------------------
                        Mixing method:                            BROYDEN_MIXING
                                                charge density mixing in g-space
                        --------------------------------------------------------
                        Smear method:                                FERMI_DIRAC
                        Electronic temperature [K]:                        300.0
                        Electronic temperature [a.u.]:                  9.50E-04
                        Accuracy threshold:                             1.00E-10
                        --------------------------------------------------------
                        Outer loop SCF in use 
                        No variables optimised in outer loop
                        eps_scf                                         1.00E-06
                        max_scf                                              100
                        DIIS optimization
                        DIIS buffer length                                     3
                        step_size                                       5.00E-01

 Spin 1

 Number of electrons:                                                          5
 Number of occupied orbitals:                                                  5
 Number of molecular orbitals:                                               105

 Spin 2

 Number of electrons:                                                          4
 Number of occupied orbitals:                                                  4
 Number of molecular orbitals:                                               104

 Number of orbital functions:                                               1465
 Number of independent orbital functions:                                   1465

 Extrapolation method: initial_guess


 SCF WAVEFUNCTION OPTIMIZATION

  Step     Update method      Time    Convergence         Total energy    Change
  ------------------------------------------------------------------------------
     1 NoMix/Diag. 0.10E+00    4.8     0.41786180       -47.1695495572 -4.72E+01
     2 Broy./Diag. 0.10E+00    8.3     0.00680331       -47.1323077987  3.72E-02
     3 Broy./Diag. 0.10E+00    8.4     0.02656458       -47.1732088793 -4.09E-02
     4 Broy./Diag. 0.10E+00    8.6     0.00069736       -47.1642067318  9.00E-03
     5 Broy./Diag. 0.10E+00    8.6     0.14881111       -47.1771666808 -1.30E-02
     6 Broy./Diag. 0.10E+00    8.9     0.02373770       -46.7105170111  4.67E-01
     7 Broy./Diag. 0.10E+00    8.9     0.00584432       -46.6674872184  4.30E-02
     8 Broy./Diag. 0.10E+00    9.2     0.00842079       -46.6604592100  7.03E-03
     9 Broy./Diag. 0.10E+00    9.3     0.04170975       -46.6692603178 -8.80E-03
    10 Broy./Diag. 0.10E+00    9.7     0.01762275       -46.7816151427 -1.12E-01
    11 Broy./Diag. 0.10E+00    9.5     0.00920425       -46.8508061054 -6.92E-02
    12 Broy./Diag. 0.10E+00    9.7     0.02510874       -46.9701107841 -1.19E-01
    13 Broy./Diag. 0.10E+00    9.6     0.02741409       -47.1052951994 -1.35E-01
    14 Broy./Diag. 0.10E+00    9.7     0.00408252       -47.2152939581 -1.10E-01
    15 Broy./Diag. 0.10E+00    9.6     0.01864764       -47.2289389975 -1.36E-02
    16 Broy./Diag. 0.10E+00    9.7     0.01747856       -47.2868086837 -5.79E-02
    17 Broy./Diag. 0.10E+00    9.7     0.00057856       -47.3376469453 -5.08E-02
    18 Broy./Diag. 0.10E+00    9.7     0.00095626       -47.2754523836  6.22E-02
    19 Broy./Diag. 0.10E+00    9.7     0.00933150       -47.2206595104  5.48E-02
    20 Broy./Diag. 0.10E+00    9.7     0.00212746       -47.2492802933 -2.86E-02
    21 Broy./Diag. 0.10E+00    9.6     0.00122260       -47.2619005177 -1.26E-02
    22 Broy./Diag. 0.10E+00    9.7     0.00040120       -47.2653764639 -3.48E-03
    23 Broy./Diag. 0.10E+00    9.7     0.00032362       -47.2541026760  1.13E-02
    24 Broy./Diag. 0.10E+00    9.6     0.01757129       -47.2428195912  1.13E-02
    25 Broy./Diag. 0.10E+00    9.8     0.00369226       -47.1594105251  8.34E-02
    26 Broy./Diag. 0.10E+00    9.9     0.00092112       -47.1540759387  5.33E-03
    27 Broy./Diag. 0.10E+00    9.7     0.00252079       -47.1648648588 -1.08E-02
    28 Broy./Diag. 0.10E+00    9.6     0.00384874       -47.1768729435 -1.20E-02
    29 Broy./Diag. 0.10E+00    9.7     0.00036854       -47.1848515405 -7.98E-03
    30 Broy./Diag. 0.10E+00    9.5     0.00036703       -47.1791134193  5.74E-03
    31 Broy./Diag. 0.10E+00    9.7     0.00105706       -47.1784043935  7.09E-04
    32 Broy./Diag. 0.10E+00    9.5     0.00060202       -47.1808014313 -2.40E-03
    33 Broy./Diag. 0.10E+00    9.7     0.00132260       -47.1877172632 -6.92E-03
    34 Broy./Diag. 0.10E+00    9.5     0.00157719       -47.1910058125 -3.29E-03
    35 Broy./Diag. 0.10E+00    9.7     0.00434630       -47.1976283395 -6.62E-03
    36 Broy./Diag. 0.10E+00    9.4     0.00235710       -47.2167093704 -1.91E-02
    37 Broy./Diag. 0.10E+00    9.7     0.00033384       -47.2258745830 -9.17E-03
    38 Broy./Diag. 0.10E+00    9.5     0.00039248       -47.2362109762 -1.03E-02
    39 Broy./Diag. 0.10E+00    9.7     0.00066493       -47.2404145957 -4.20E-03
    40 Broy./Diag. 0.10E+00    9.6     0.00057982       -47.2381532794  2.26E-03
    41 Broy./Diag. 0.10E+00    9.7     0.00058545       -47.2338373066  4.32E-03
    42 Broy./Diag. 0.10E+00    9.6     0.00032128       -47.2272842169  6.55E-03
    43 Broy./Diag. 0.10E+00    9.7     0.00124015       -47.2227161360  4.57E-03
    44 Broy./Diag. 0.10E+00    9.6     0.00021005       -47.2085504230  1.42E-02
    45 Broy./Diag. 0.10E+00    9.7     0.00046821       -47.1991970292  9.35E-03
    46 Broy./Diag. 0.10E+00    9.6     0.00037875       -47.1912303889  7.97E-03
    47 Broy./Diag. 0.10E+00    9.8     0.00024751       -47.1897061593  1.52E-03
    48 Broy./Diag. 0.10E+00    9.7     0.00065887       -47.1896089171  9.72E-05
    49 Broy./Diag. 0.10E+00    9.6     0.00024953       -47.1889428200  6.66E-04
    50 Broy./Diag. 0.10E+00    9.6     0.00033159       -47.1816186702  7.32E-03
    51 Broy./Diag. 0.10E+00    9.7     0.00015193       -47.1808935665  7.25E-04
    52 Broy./Diag. 0.10E+00    9.7     0.00059129       -47.1624479172  1.84E-02
    53 Broy./Diag. 0.10E+00    9.7     0.00013552       -47.1643018833 -1.85E-03
    54 Broy./Diag. 0.10E+00    9.7     0.00008355       -47.1645879645 -2.86E-04
    55 Broy./Diag. 0.10E+00    9.6     0.00010959       -47.1655583297 -9.70E-04
    56 Broy./Diag. 0.10E+00    9.7     0.00032438       -47.1645725486  9.86E-04
    57 Broy./Diag. 0.10E+00    9.5     0.00006148       -47.1629908433  1.58E-03
    58 Broy./Diag. 0.10E+00    9.7     0.00014989       -47.1634654844 -4.75E-04
    59 Broy./Diag. 0.10E+00    9.9     0.00075897       -47.1640406940 -5.75E-04
    60 Broy./Diag. 0.10E+00    9.7     0.00063786       -47.1641241667 -8.35E-05
    61 Broy./Diag. 0.10E+00    9.6     0.00005566       -47.1639766138  1.48E-04
    62 Broy./Diag. 0.10E+00    9.8     0.00006730       -47.1638603385  1.16E-04
    63 Broy./Diag. 0.10E+00    9.5     0.00015021       -47.1648215370 -9.61E-04
    64 Broy./Diag. 0.10E+00    9.7     0.00060845       -47.1647114200  1.10E-04
    65 Broy./Diag. 0.10E+00    9.4     0.00017805       -47.1635842764  1.13E-03
    66 Broy./Diag. 0.10E+00    9.7     0.00024698       -47.1633189087  2.65E-04
    67 Broy./Diag. 0.10E+00    9.5     0.00006867       -47.1646562045 -1.34E-03
    68 Broy./Diag. 0.10E+00    9.7     0.00048024       -47.1648326478 -1.76E-04
    69 Broy./Diag. 0.10E+00    9.5     0.00009489       -47.1628259975  2.01E-03
    70 Broy./Diag. 0.10E+00    9.7     0.00018644       -47.1631432623 -3.17E-04
    71 Broy./Diag. 0.10E+00    9.5     0.00037682       -47.1621132324  1.03E-03
    72 Broy./Diag. 0.10E+00    9.7     0.00123143       -47.1637878511 -1.67E-03
    73 Broy./Diag. 0.10E+00    9.5     0.00008995       -47.1675385841 -3.75E-03
    74 Broy./Diag. 0.10E+00    9.7     0.00041791       -47.1669953150  5.43E-04
    75 Broy./Diag. 0.10E+00    9.6     0.00014553       -47.1685329100 -1.54E-03
    76 Broy./Diag. 0.10E+00    9.7     0.00058899       -47.1681508631  3.82E-04
    77 Broy./Diag. 0.10E+00    9.5     0.00005478       -47.1673142115  8.37E-04
    78 Broy./Diag. 0.10E+00    9.7     0.00004234       -47.1674763160 -1.62E-04
    79 Broy./Diag. 0.10E+00    9.6     0.00009157       -47.1676809354 -2.05E-04
    80 Broy./Diag. 0.10E+00    9.7     0.00019419       -47.1676544860  2.64E-05
[...]
   130 Broy./Diag. 0.10E+00    8.6     0.01489788      -683.2169574131 -9.52E-03
   131 Broy./Diag. 0.10E+00    8.6     0.00774882      -683.2217452321 -4.79E-03
   132 Broy./Diag. 0.10E+00    8.6     0.00703941      -683.2199086410  1.84E-03
   133 Broy./Diag. 0.10E+00    8.6     0.00760242      -683.2201675389 -2.59E-04
   134 Broy./Diag. 0.10E+00    8.6     0.01740200      -683.2193104355  8.57E-04
   135 Broy./Diag. 0.10E+00    8.6     0.01046726      -683.2267413769 -7.43E-03
   136 Broy./Diag. 0.10E+00    8.6     0.02201113      -683.2300114600 -3.27E-03
   137 Broy./Diag. 0.10E+00    8.6     0.01907788      -683.2229328591  7.08E-03
   138 Broy./Diag. 0.10E+00    8.6     0.01717230      -683.2114705116  1.15E-02
   139 Broy./Diag. 0.10E+00    8.6     0.02437987      -683.2107549940  7.16E-04
   140 Broy./Diag. 0.10E+00    8.6     0.01007929      -683.2225381147 -1.18E-02
   141 Broy./Diag. 0.10E+00    8.6     0.01905316      -683.2222168017  3.21E-04
   142 Broy./Diag. 0.10E+00    8.6     0.01720834      -683.2186253522  3.59E-03
   143 Broy./Diag. 0.10E+00    8.6     0.01127620      -683.2135782677  5.05E-03
   144 Broy./Diag. 0.10E+00    8.6     0.01568099      -683.2156942851 -2.12E-03
   145 Broy./Diag. 0.10E+00    8.6     0.01072867      -683.2084110235  7.28E-03
   146 Broy./Diag. 0.10E+00    8.6     0.01948952      -683.2083604386  5.06E-05
   147 Broy./Diag. 0.10E+00    8.6     0.00478341      -683.2190438723 -1.07E-02
   148 Broy./Diag. 0.10E+00    8.6     0.00627076      -683.2195419932 -4.98E-04
   149 Broy./Diag. 0.10E+00    8.6     0.01285238      -683.2190769014  4.65E-04
   150 Broy./Diag. 0.10E+00    8.6     0.01382826      -683.2123497425  6.73E-03
   151 Broy./Diag. 0.10E+00    8.6     0.01758336      -683.2109826907  1.37E-03
   152 Broy./Diag. 0.10E+00    8.6     0.01743484      -683.2173425589 -6.36E-03
   153 Broy./Diag. 0.10E+00    8.6     0.00901027      -683.2221519766 -4.81E-03
   154 Broy./Diag. 0.10E+00    8.6     0.01207744      -683.2196361606  2.52E-03
   155 Broy./Diag. 0.10E+00    8.6     0.02238271      -683.2204100152 -7.74E-04
   156 Broy./Diag. 0.10E+00    8.6     0.01503446      -683.2110331537  9.38E-03
   157 Broy./Diag. 0.10E+00    8.6     0.01977204      -683.2118501949 -8.17E-04
   158 Broy./Diag. 0.10E+00    8.6     0.02293951      -683.2203061042 -8.46E-03
   159 Broy./Diag. 0.10E+00    8.6     0.02208890      -683.2111024316  9.20E-03
   160 Broy./Diag. 0.10E+00    8.6     0.00967183      -683.2215749993 -1.05E-02
   161 Broy./Diag. 0.10E+00    8.6     0.00842502      -683.2217968194 -2.22E-04
   162 Broy./Diag. 0.10E+00    8.6     0.01472097      -683.2194929527  2.30E-03
   163 Broy./Diag. 0.10E+00    8.6     0.00049962      -683.2144895018  5.00E-03
   164 Broy./Diag. 0.10E+00    8.6     0.01614264      -683.2156951901 -1.21E-03
   165 Broy./Diag. 0.10E+00    8.6     0.01508560      -683.2178824055 -2.19E-03
   166 Broy./Diag. 0.10E+00    8.6     0.00842466      -683.2206697491 -2.79E-03
   167 Broy./Diag. 0.10E+00    8.6     0.01174372      -683.2218949938 -1.23E-03
   168 Broy./Diag. 0.10E+00    8.6     0.00857378      -683.2148443475  7.05E-03
   169 Broy./Diag. 0.10E+00    8.6     0.02407024      -683.2122049696  2.64E-03
   170 Broy./Diag. 0.10E+00    8.6     0.01839419      -683.2026238033  9.58E-03
   171 Broy./Diag. 0.10E+00    8.6     0.02541227      -683.2054830513 -2.86E-03
   172 Broy./Diag. 0.10E+00    8.6     0.02225438      -683.2025516584  2.93E-03
   173 Broy./Diag. 0.10E+00    8.6     0.00475545      -683.2143892177 -1.18E-02
   174 Broy./Diag. 0.10E+00    8.6     0.00900191      -683.2125573794  1.83E-03
   175 Broy./Diag. 0.10E+00    8.6     0.00521426      -683.2165290231 -3.97E-03
   176 Broy./Diag. 0.10E+00    8.6     0.00634291      -683.2163508121  1.78E-04
   177 Broy./Diag. 0.10E+00    8.6     0.02225040      -683.2155021875  8.49E-04
   178 Broy./Diag. 0.10E+00    8.6     0.02900081      -683.2222140069 -6.71E-03
   179 Broy./Diag. 0.10E+00    8.6     0.02818064      -683.2132535953  8.96E-03
   180 Broy./Diag. 0.10E+00    8.6     0.01134035      -683.2251145420 -1.19E-02
   181 Broy./Diag. 0.10E+00    8.6     0.00656618      -683.2215958933  3.52E-03
   182 Broy./Diag. 0.10E+00    8.6     0.00787659      -683.2224791117 -8.83E-04
   183 Broy./Diag. 0.10E+00    8.6     0.01807019      -683.2188211033  3.66E-03
   184 Broy./Diag. 0.10E+00    8.6     0.01735488      -683.2111364650  7.68E-03
   185 Broy./Diag. 0.10E+00    8.6     0.01956142      -683.2123557483 -1.22E-03
   186 Broy./Diag. 0.10E+00    8.6     0.01579960      -683.2048919951  7.46E-03
   187 Broy./Diag. 0.10E+00    8.6     0.02026722      -683.2105488832 -5.66E-03
   188 Broy./Diag. 0.10E+00    8.6     0.04114635      -683.2053431662  5.21E-03
   189 Broy./Diag. 0.10E+00    8.6     0.00965182      -683.2243897275 -1.90E-02
   190 Broy./Diag. 0.10E+00    8.6     0.01133663      -683.2212171173  3.17E-03
   191 Broy./Diag. 0.10E+00    8.6     0.01543388      -683.2224884512 -1.27E-03
   192 Broy./Diag. 0.10E+00    8.6     0.01439817      -683.2134772293  9.01E-03
   193 Broy./Diag. 0.10E+00    8.6     0.01079592      -683.2156563783 -2.18E-03
   194 Broy./Diag. 0.10E+00    8.6     0.01055523      -683.2183903741 -2.73E-03
   195 Broy./Diag. 0.10E+00    8.6     0.00762759      -683.2190018781 -6.12E-04
   196 Broy./Diag. 0.10E+00    8.6     0.01245839      -683.2176794187  1.32E-03
   197 Broy./Diag. 0.10E+00    8.6     0.00863933      -683.2160060613  1.67E-03
   198 Broy./Diag. 0.10E+00    8.6     0.04219031      -683.2145531011  1.45E-03
   199 Broy./Diag. 0.10E+00    8.6     0.02939396      -683.1974812229  1.71E-02
   200 Broy./Diag. 0.10E+00    8.6     0.00915743      -683.2110384155 -1.36E-02
   201 Broy./Diag. 0.10E+00    8.6     0.00871291      -683.2097140145  1.32E-03
   202 Broy./Diag. 0.10E+00    8.6     0.00466633      -683.2150350889 -5.32E-03
   203 Broy./Diag. 0.10E+00    8.6     0.00263221      -683.2175788769 -2.54E-03
   204 Broy./Diag. 0.10E+00    8.6     0.01044926      -683.2183348771 -7.56E-04
   205 Broy./Diag. 0.10E+00    8.6     0.00771027      -683.2189392407 -6.04E-04
   206 Broy./Diag. 0.10E+00    8.6     0.01373895      -683.2158722844  3.07E-03
   207 Broy./Diag. 0.10E+00    8.6     0.00980639      -683.2137030205  2.17E-03
   208 Broy./Diag. 0.10E+00    8.6     0.02930677      -683.2137197602 -1.67E-05
   209 Broy./Diag. 0.10E+00    8.6     0.01593643      -683.2260038251 -1.23E-02
   210 Broy./Diag. 0.10E+00    8.6     0.01332058      -683.2160954840  9.91E-03
   211 Broy./Diag. 0.10E+00    8.6     0.01796532      -683.2173049819 -1.21E-03
   212 Broy./Diag. 0.10E+00    8.6     0.01150187      -683.2104891551  6.82E-03
   213 Broy./Diag. 0.10E+00    8.6     0.00369988      -683.2155343634 -5.05E-03
   214 Broy./Diag. 0.10E+00    8.6     0.00508053      -683.2136278894  1.91E-03
   215 Broy./Diag. 0.10E+00    8.6     0.00286012      -683.2129689132  6.59E-04
   216 Broy./Diag. 0.10E+00    8.6     0.00525112      -683.2135531701 -5.84E-04
   217 Broy./Diag. 0.10E+00    8.6     0.00288002      -683.2141510736 -5.98E-04
   218 Broy./Diag. 0.10E+00    8.6     0.02248316      -683.2117847454  2.37E-03
   219 Broy./Diag. 0.10E+00    8.6     0.02499380      -683.2028583948  8.93E-03
   220 Broy./Diag. 0.10E+00    8.6     0.00683557      -683.2164645038 -1.36E-02
   221 Broy./Diag. 0.10E+00    8.6     0.00524087      -683.2192223799 -2.76E-03
   222 Broy./Diag. 0.10E+00    8.6     0.01177495      -683.2181110625  1.11E-03
   223 Broy./Diag. 0.10E+00    8.6     0.00751353      -683.2134096992  4.70E-03
   224 Broy./Diag. 0.10E+00    8.6     0.00707132      -683.2173503024 -3.94E-03
   225 Broy./Diag. 0.10E+00    8.6     0.00774145      -683.2182723908 -9.22E-04
   226 Broy./Diag. 0.10E+00    8.6     0.00997007      -683.2163883891  1.88E-03
   227 Broy./Diag. 0.10E+00    8.6     0.00415199      -683.2162705923  1.18E-04
   228 Broy./Diag. 0.10E+00    8.6     0.00437201      -683.2154770191  7.94E-04
   229 Broy./Diag. 0.10E+00    8.6     0.00562255      -683.2135659015  1.91E-03
   230 Broy./Diag. 0.10E+00    8.6     0.00555963      -683.2174192234 -3.85E-03
   231 Broy./Diag. 0.10E+00    8.6     0.01790290      -683.2157087894  1.71E-03
   232 Broy./Diag. 0.10E+00    8.6     0.02460986      -683.2104630056  5.25E-03
   233 Broy./Diag. 0.10E+00    8.6     0.01098338      -683.2215711220 -1.11E-02
   234 Broy./Diag. 0.10E+00    8.6     0.00942789      -683.2174418550  4.13E-03
   235 Broy./Diag. 0.10E+00    8.6     0.00188150      -683.2221585818 -4.72E-03
   236 Broy./Diag. 0.10E+00    8.6     0.01281278      -683.2213974339  7.61E-04
   237 Broy./Diag. 0.10E+00    8.6     0.00757883      -683.2193832500  2.01E-03
   238 Broy./Diag. 0.10E+00    8.6     0.01337252      -683.2158074262  3.58E-03
   239 Broy./Diag. 0.10E+00    8.6     0.01804054      -683.2124263533  3.38E-03
   240 Broy./Diag. 0.10E+00    8.6     0.02353819      -683.2144021966 -1.98E-03
   241 Broy./Diag. 0.10E+00    8.6     0.01972423      -683.2159457117 -1.54E-03
   242 Broy./Diag. 0.10E+00    8.6     0.01681664      -683.2221943234 -6.25E-03
   243 Broy./Diag. 0.10E+00    8.6     0.00682530      -683.2151641471  7.03E-03
   244 Broy./Diag. 0.10E+00    8.6     0.00799194      -683.2180792552 -2.92E-03
   245 Broy./Diag. 0.10E+00    8.6     0.01095939      -683.2165729980  1.51E-03
   246 Broy./Diag. 0.10E+00    8.6     0.01262736      -683.2131645918  3.41E-03
   247 Broy./Diag. 0.10E+00    8.6     0.00325040      -683.2179334067 -4.77E-03
   248 Broy./Diag. 0.10E+00    8.6     0.00480358      -683.2182266123 -2.93E-04
   249 Broy./Diag. 0.10E+00    8.6     0.01282427      -683.2171346404  1.09E-03
   250 Broy./Diag. 0.10E+00    8.6     0.01496084      -683.2105600045  6.57E-03
   251 Broy./Diag. 0.10E+00    8.6     0.01115832      -683.2182024738 -7.64E-03
   252 Broy./Diag. 0.10E+00    8.6     0.00961768      -683.2140548441  4.15E-03
   253 Broy./Diag. 0.10E+00    8.6     0.00695539      -683.2180078626 -3.95E-03
   254 Broy./Diag. 0.10E+00    8.6     0.00804807      -683.2142394694  3.77E-03
   255 Broy./Diag. 0.10E+00    8.6     0.01265006      -683.2140133636  2.26E-04
   256 Broy./Diag. 0.10E+00    8.6     0.00793751      -683.2187017146 -4.69E-03
   257 Broy./Diag. 0.10E+00    8.6     0.00941419      -683.2148425666  3.86E-03
   258 Broy./Diag. 0.10E+00    8.6     0.01923861      -683.2118627681  2.98E-03
   259 Broy./Diag. 0.10E+00    8.6     0.00892369      -683.2173783718 -5.52E-03
   260 Broy./Diag. 0.10E+00    8.6     0.01860620      -683.2200076840 -2.63E-03
   261 Broy./Diag. 0.10E+00    8.6     0.01160408      -683.2116539138  8.35E-03
   262 Broy./Diag. 0.10E+00    8.6     0.00385843      -683.2175965148 -5.94E-03
   263 Broy./Diag. 0.10E+00    8.6     0.00382635      -683.2164195255  1.18E-03
   264 Broy./Diag. 0.10E+00    8.6     0.00773683      -683.2178308472 -1.41E-03
   265 Broy./Diag. 0.10E+00    8.6     0.01193333      -683.2181881629 -3.57E-04
   266 Broy./Diag. 0.10E+00    8.6     0.00052457      -683.2134980422  4.69E-03
   267 Broy./Diag. 0.10E+00    8.6     0.00409520      -683.2127445146  7.54E-04
   268 Broy./Diag. 0.10E+00    8.6     0.00585341      -683.2105655850  2.18E-03
   269 Broy./Diag. 0.10E+00    8.6     0.00629175      -683.2103508896  2.15E-04
   270 Broy./Diag. 0.10E+00    8.6     0.01083742      -683.2119901265 -1.64E-03
   271 Broy./Diag. 0.10E+00    8.6     0.01097159      -683.2072862409  4.70E-03
   272 Broy./Diag. 0.10E+00    8.6     0.00321796      -683.2131340176 -5.85E-03
   273 Broy./Diag. 0.10E+00    8.6     0.00461466      -683.2115846949  1.55E-03
   274 Broy./Diag. 0.10E+00    8.6     0.00560204      -683.2119518103 -3.67E-04
   275 Broy./Diag. 0.10E+00    8.6     0.00554236      -683.2152056826 -3.25E-03
   276 Broy./Diag. 0.10E+00    8.6     0.00848946      -683.2166922876 -1.49E-03
   277 Broy./Diag. 0.10E+00    8.6     0.00592078      -683.2118944495  4.80E-03
   278 Broy./Diag. 0.10E+00    8.6     0.00850496      -683.2136027894 -1.71E-03
   279 Broy./Diag. 0.10E+00    8.6     0.01007010      -683.2165877655 -2.98E-03
   280 Broy./Diag. 0.10E+00    8.6     0.01990076      -683.2183654298 -1.78E-03
   281 Broy./Diag. 0.10E+00    8.6     0.01493247      -683.2109646391  7.40E-03
   282 Broy./Diag. 0.10E+00    8.6     0.00855921      -683.2184938983 -7.53E-03
   283 Broy./Diag. 0.10E+00    8.6     0.00590354      -683.2186100524 -1.16E-04
   284 Broy./Diag. 0.10E+00    8.6     0.00618602      -683.2173055777  1.30E-03
   285 Broy./Diag. 0.10E+00    8.6     0.02442061      -683.2168789956  4.27E-04
   286 Broy./Diag. 0.10E+00    8.6     0.01787490      -683.2060779170  1.08E-02
   287 Broy./Diag. 0.10E+00    8.6     0.01776325      -683.2174099096 -1.13E-02
   288 Broy./Diag. 0.10E+00    8.6     0.01129647      -683.2171147411  2.95E-04
   289 Broy./Diag. 0.10E+00    8.6     0.02591573      -683.2157409315  1.37E-03
   290 Broy./Diag. 0.10E+00    8.6     0.02692080      -683.2076537651  8.09E-03
   291 Broy./Diag. 0.10E+00    8.6     0.01148626      -683.2213156678 -1.37E-02
   292 Broy./Diag. 0.10E+00    8.6     0.01281226      -683.2263544756 -5.04E-03
   293 Broy./Diag. 0.10E+00    8.6     0.01349671      -683.2262016517  1.53E-04
   294 Broy./Diag. 0.10E+00    8.6     0.01670990      -683.2292663274 -3.06E-03
   295 Broy./Diag. 0.10E+00    8.6     0.03345077      -683.2205789271  8.69E-03
   296 Broy./Diag. 0.10E+00    8.6     0.03954816      -683.2077433628  1.28E-02
   297 Broy./Diag. 0.10E+00    8.6     0.02186168      -683.2246053734 -1.69E-02
   298 Broy./Diag. 0.10E+00    8.6     0.02366679      -683.2187593812  5.85E-03
   299 Broy./Diag. 0.10E+00    8.6     0.00349751      -683.2098236061  8.94E-03
   300 Broy./Diag. 0.10E+00    8.6     0.01022261      -683.2097054809  1.18E-04
   301 Broy./Diag. 0.10E+00    8.6     0.00491294      -683.2138945703 -4.19E-03
   302 Broy./Diag. 0.10E+00    8.6     0.00980890      -683.2126208586  1.27E-03
   303 Broy./Diag. 0.10E+00    8.6     0.00701860      -683.2122361659  3.85E-04
   304 Broy./Diag. 0.10E+00    8.6     0.01105325      -683.2155607556 -3.32E-03
   305 Broy./Diag. 0.10E+00    8.6     0.00581548      -683.2135977249  1.96E-03
   306 Broy./Diag. 0.10E+00    8.6     0.00497656      -683.2136721306 -7.44E-05
   307 Broy./Diag. 0.10E+00    8.6     0.00632804      -683.2110651006  2.61E-03
   308 Broy./Diag. 0.10E+00    8.6     0.01620542      -683.2104028387  6.62E-04
   309 Broy./Diag. 0.10E+00    8.6     0.00227777      -683.2173510193 -6.95E-03
   310 Broy./Diag. 0.10E+00    8.6     0.00529215      -683.2165640931  7.87E-04
   311 Broy./Diag. 0.10E+00    8.6     0.01671834      -683.2166391781 -7.51E-05
   312 Broy./Diag. 0.10E+00    8.6     0.00948860      -683.2171064003 -4.67E-04
   313 Broy./Diag. 0.10E+00    8.6     0.00840853      -683.2207586587 -3.65E-03
   314 Broy./Diag. 0.10E+00    8.6     0.01338933      -683.2165034836  4.26E-03
   315 Broy./Diag. 0.10E+00    8.6     0.02153704      -683.2153723039  1.13E-03
   316 Broy./Diag. 0.10E+00    8.6     0.00265022      -683.2105513092  4.82E-03
   317 Broy./Diag. 0.10E+00    8.6     0.02522473      -683.2088772152  1.67E-03
   318 Broy./Diag. 0.10E+00    8.6     0.05757070      -683.2040900386  4.79E-03
   319 Broy./Diag. 0.10E+00    8.6     0.02082661      -683.2278343770 -2.37E-02
   320 Broy./Diag. 0.10E+00    8.6     0.02581831      -683.2187713051  9.06E-03
   321 Broy./Diag. 0.10E+00    8.6     0.02847367      -683.2194824985 -7.11E-04
   322 Broy./Diag. 0.10E+00    8.6     0.01570696      -683.2231305618 -3.65E-03
   323 Broy./Diag. 0.10E+00    8.6     0.02075014      -683.2234940592 -3.63E-04
   324 Broy./Diag. 0.10E+00    8.6     0.01539253      -683.2219337690  1.56E-03
   325 Broy./Diag. 0.10E+00    8.6     0.01122702      -683.2181403812  3.79E-03
   326 Broy./Diag. 0.10E+00    8.6     0.00879427      -683.2131108191  5.03E-03
   327 Broy./Diag. 0.10E+00    8.6     0.00916652      -683.2180627946 -4.95E-03
   328 Broy./Diag. 0.10E+00    8.6     0.05378164      -683.2147518895  3.31E-03
   329 Broy./Diag. 0.10E+00    8.6     0.06158417      -683.1978378751  1.69E-02
   330 Broy./Diag. 0.10E+00    8.6     0.03074300      -683.2310589550 -3.32E-02
   331 Broy./Diag. 0.10E+00    8.6     0.02172091      -683.2333550185 -2.30E-03
   332 Broy./Diag. 0.10E+00    8.6     0.02146641      -683.2225051203  1.08E-02
   333 Broy./Diag. 0.10E+00    8.6     0.03031689      -683.2221860219  3.19E-04
   334 Broy./Diag. 0.10E+00    8.6     0.04469535      -683.2215879253  5.98E-04
   335 Broy./Diag. 0.10E+00    8.6     0.02951982      -683.2263275662 -4.74E-03
   336 Broy./Diag. 0.10E+00    8.6     0.02531846      -683.2334547791 -7.13E-03
   337 Broy./Diag. 0.10E+00    8.6     0.02872713      -683.2135603941  1.99E-02
   338 Broy./Diag. 0.10E+00    8.6     0.00480911      -683.2078140379  5.75E-03
   339 Broy./Diag. 0.10E+00    8.6     0.03043832      -683.2039775744  3.84E-03
   340 Broy./Diag. 0.10E+00    8.6     0.02366679      -683.1883825077  1.56E-02
   341 Broy./Diag. 0.10E+00    8.6     0.01151459      -683.1926939192 -4.31E-03
   342 Broy./Diag. 0.10E+00    8.6     0.02035744      -683.1960869048 -3.39E-03
   343 Broy./Diag. 0.10E+00    8.6     0.03445443      -683.1943184651  1.77E-03
   344 Broy./Diag. 0.10E+00    8.6     0.03468544      -683.1812945456  1.30E-02
   345 Broy./Diag. 0.10E+00    8.6     0.01985592      -683.1994198257 -1.81E-02
   346 Broy./Diag. 0.10E+00    8.6     0.02724360      -683.2109779089 -1.16E-02
   347 Broy./Diag. 0.10E+00    8.6     0.02061548      -683.2133845216 -2.41E-03
   348 Broy./Diag. 0.10E+00    8.6     0.07159763      -683.2020734441  1.13E-02
   349 Broy./Diag. 0.10E+00    8.6     0.07866650      -683.1893136322  1.28E-02
   350 Broy./Diag. 0.10E+00    8.6     0.01791653      -683.2340266776 -4.47E-02
   351 Broy./Diag. 0.10E+00    8.6     0.02440013      -683.2248639584  9.16E-03
   352 Broy./Diag. 0.10E+00    8.6     0.01352057      -683.2190748404  5.79E-03
   353 Broy./Diag. 0.10E+00    8.6     0.00332076      -683.2157566601  3.32E-03
   354 Broy./Diag. 0.10E+00    8.6     0.01777754      -683.2147849603  9.72E-04
   355 Broy./Diag. 0.10E+00    8.6     0.00622713      -683.2140488775  7.36E-04
   356 Broy./Diag. 0.10E+00    8.6     0.01235481      -683.2114263091  2.62E-03
   357 Broy./Diag. 0.10E+00    8.6     0.05387717      -683.2242364045 -1.28E-02
   358 Broy./Diag. 0.10E+00    8.6     0.05793312      -683.2346271442 -1.04E-02
   359 Broy./Diag. 0.10E+00    8.6     0.02829121      -683.2085807800  2.60E-02
   360 Broy./Diag. 0.10E+00    8.6     0.02913346      -683.2064213895  2.16E-03
   361 Broy./Diag. 0.10E+00    8.6     0.04200739      -683.2263702195 -1.99E-02
   362 Broy./Diag. 0.10E+00    8.6     0.04581501      -683.2278833735 -1.51E-03
   363 Broy./Diag. 0.10E+00    8.6     0.01811403      -683.2204158740  7.47E-03
   364 Broy./Diag. 0.10E+00    8.6     0.02407862      -683.2139521379  6.46E-03
   365 Broy./Diag. 0.10E+00    8.6     0.02552284      -683.2034964504  1.05E-02
   366 Broy./Diag. 0.10E+00    8.6     0.01108864      -683.2173888377 -1.39E-02
   367 Broy./Diag. 0.10E+00    8.6     0.00939221      -683.2180451127 -6.56E-04
   368 Broy./Diag. 0.10E+00    8.6     0.00246511      -683.2211834935 -3.14E-03
   369 Broy./Diag. 0.10E+00    8.6     0.02847613      -683.2191933181  1.99E-03
   370 Broy./Diag. 0.10E+00    8.6     0.02702377      -683.2179932511  1.20E-03
   371 Broy./Diag. 0.10E+00    8.6     0.00790010      -683.2313691022 -1.34E-02
   372 Broy./Diag. 0.10E+00    8.6     0.03160382      -683.2343920511 -3.02E-03
   373 Broy./Diag. 0.10E+00    8.6     0.06636145      -683.2411760792 -6.78E-03
   374 Broy./Diag. 0.10E+00    8.6     0.04787832      -683.2018816661  3.93E-02
   375 Broy./Diag. 0.10E+00    8.6     0.07096571      -683.2042492222 -2.37E-03
