 DBCSR| Multiplication driver                                               XSMM
 DBCSR| Multrec recursion limit                                              512
 DBCSR| Multiplication stack size                                           1000
 DBCSR| Maximum elements for images                                    UNLIMITED
 DBCSR| Multiplicative factor virtual images                                   1
 DBCSR| Multiplication size stacks                                             3
 DBCSR| Number of 3D layers                                               SINGLE
 DBCSR| Use MPI memory allocation                                              T
 DBCSR| Use RMA algorithm                                                      F
 DBCSR| Use Communication thread                                               T
 DBCSR| Communication thread load                                             87


  **** **** ******  **  PROGRAM STARTED AT               2024-07-25 11:21:35.871
 ***** ** ***  *** **   PROGRAM STARTED ON                            sebnode131
 **    ****   ******    PROGRAM STARTED BY                                luehrs
 ***** **    ** ** **   PROGRAM PROCESS ID                                340363
  **** **  *******  **  PROGRAM STARTED IN /home/luehrs/PhD/Sodium_batteries/Sod
                                           ium-graphene-edge/Zig_zag_3/No_hydrog
                                           en

 CP2K| version string:                    CP2K version 7.0 (Development Version)
 CP2K| source code revision number:                                             
 CP2K| cp2kflags: libint fftw3 libxc parallel mpi3 scalapack xsmm libderiv_max_a
 CP2K|            m1=8 libint_max_am=9 max_contr=4
 CP2K| is freely available from                            https://www.cp2k.org/
 CP2K| Program compiled at                         Sun Jun 24 14:37:16 CEST 2018
 CP2K| Program compiled on                                            sebstorage
 CP2K| Program compiled for                                Linux-x86-64-gfortran
 CP2K| Data directory path    /home/brehm/Software_Batchnode/2018/Source/cp2k_18
 CP2K| Input file name                         graphene_zig_zag_BSSE-1_2.restart

 GLOBAL| Force Environment number                                              1
 GLOBAL| Basis set file name                                      ./BASIS_MOLOPT
 GLOBAL| Potential file name                                    ./GTH_POTENTIALS
 GLOBAL| MM Potential file name                                     MM_POTENTIAL
 GLOBAL| Coordinate file name           graphene_no_hydrogen_zig-zag_relaxed.xyz
 GLOBAL| Method name                                                        CP2K
 GLOBAL| Project name                                      graphene_zig_zag_BSSE
 GLOBAL| Preferred FFT library                                             FFTW3
 GLOBAL| Preferred diagonalization lib.                                       SL
 GLOBAL| Run type                                                           BSSE
 GLOBAL| All-to-all communication in single precision                          F
 GLOBAL| FFTs using library dependent lengths                                  F
 GLOBAL| Global print level                                                  LOW
 GLOBAL| Total number of message passing processes                            16
 GLOBAL| Number of threads for this process                                    1
 GLOBAL| This output is from process                                           0
 GLOBAL| CPU model name :  AMD EPYC 7513 32-Core Processor

 MEMORY| system memory details [Kb]
 MEMORY|                        rank 0           min           max       average
 MEMORY| MemTotal            131901556     131901556     131901556     131901556
 MEMORY| MemFree              42538696      42538696      42538696      42538696
 MEMORY| Buffers                139076        139076        139076        139076
 MEMORY| Cached                 383532        383532        383532        383532
 MEMORY| Slab                  1284784       1284784       1284784       1284784
 MEMORY| SReclaimable           451156        451156        451156        451156
 MEMORY| MemLikelyFree        43512460      43512460      43512460      43512460


 GENERATE|  Preliminary Number of Bonds generated:                             0
 GENERATE|  Achieved consistency in connectivity generation.

 *******************************************************************************
 *******************************************************************************
 **                                                                           **
 **     #####                         ##              ##                      **
 **    ##   ##            ##          ##              ##                      **
 **   ##     ##                       ##            ######                    **
 **   ##     ##  ##   ##  ##   #####  ##  ##   ####   ##    #####    #####    **
 **   ##     ##  ##   ##  ##  ##      ## ##   ##      ##   ##   ##  ##   ##   **
 **   ##  ## ##  ##   ##  ##  ##      ####     ###    ##   ######   ######    **
 **    ##  ###   ##   ##  ##  ##      ## ##      ##   ##   ##       ##        **
 **     #######   #####   ##   #####  ##  ##  ####    ##    #####   ##        **
 **           ##                                                    ##        **
 **                                                                           **
 **                                                ... make the atoms dance   **
 **                                                                           **
 **            Copyright (C) by CP2K developers group (2000 - 2018)           **
 **                                                                           **
 *******************************************************************************


 TOTAL NUMBERS AND MAXIMUM NUMBERS

  Total number of            - Atomic kinds:                                   2
                             - Atoms:                                        113
                             - Shell sets:                                   113
                             - Shells:                                       565
                             - Primitive Cartesian functions:                567
                             - Cartesian basis functions:                   1577
                             - Spherical basis functions:                   1465

  Maximum angular momentum of- Orbital basis functions:                        2
                             - Local part of the GTH pseudopotential:          2
                             - Non-local part of the GTH pseudopotential:      1


 SCF PARAMETERS         Density guess:                                    ATOMIC
                        --------------------------------------------------------
                        max_scf:                                             400
                        max_scf_history:                                       0
                        max_diis:                                              4
                        --------------------------------------------------------
                        eps_scf:                                        3.00E-07
                        eps_scf_history:                                0.00E+00
                        eps_diis:                                       1.00E-01
                        eps_eigval:                                     1.00E-05
                        --------------------------------------------------------
                        level_shift [a.u.]:                                 0.00
                        added MOs                                       100  100
                        --------------------------------------------------------
                        Mixing method:                            BROYDEN_MIXING
                                                charge density mixing in g-space
                        --------------------------------------------------------
                        Smear method:                                FERMI_DIRAC
                        Electronic temperature [K]:                        300.0
                        Electronic temperature [a.u.]:                  9.50E-04
                        Accuracy threshold:                             1.00E-10
                        --------------------------------------------------------
                        Outer loop SCF in use 
                        No variables optimised in outer loop
                        eps_scf                                         1.00E-06
                        max_scf                                              100
                        DIIS optimization
                        DIIS buffer length                                     3
                        step_size                                       5.00E-01

 -------------------------------------------------------------------------------
 -                                                                             -
 -  BSSE CALCULATION         FRAGMENT CONF: 11        FRAGMENT SUBCONF: 10     -
 -                           CHARGE =     0           MULTIPLICITY =     0     -
 -                                                                             -
 -                 ATOM INDEX                              ATOM NAME           -
 -                 ----------                              ---------           -
 -                      1                                   C                  -
 -                      2                                   C                  -
 -                      3                                   C                  -
 -                      4                                   C                  -
 -                      5                                   C                  -
 -                      6                                   C                  -
 -                      7                                   C                  -
 -                      8                                   C                  -
 -                      9                                   C                  -
 -                     10                                   C                  -
 -                     11                                   C                  -
 -                     12                                   C                  -
 -                     13                                   C                  -
 -                     14                                   C                  -
 -                     15                                   C                  -
 -                     16                                   C                  -
 -                     17                                   C                  -
 -                     18                                   C                  -
 -                     19                                   C                  -
 -                     20                                   C                  -
 -                     21                                   C                  -
 -                     22                                   C                  -
 -                     23                                   C                  -
 -                     24                                   C                  -
 -                     25                                   C                  -
 -                     26                                   C                  -
 -                     27                                   C                  -
 -                     28                                   C                  -
 -                     29                                   C                  -
 -                     30                                   C                  -
 -                     31                                   C                  -
 -                     32                                   C                  -
 -                     33                                   C                  -
 -                     34                                   C                  -
 -                     35                                   C                  -
 -                     36                                   C                  -
 -                     37                                   C                  -
 -                     38                                   C                  -
 -                     39                                   C                  -
 -                     40                                   C                  -
 -                     41                                   C                  -
 -                     42                                   C                  -
 -                     43                                   C                  -
 -                     44                                   C                  -
 -                     45                                   C                  -
 -                     46                                   C                  -
 -                     47                                   C                  -
 -                     48                                   C                  -
 -                     49                                   C                  -
 -                     50                                   C                  -
 -                     51                                   C                  -
 -                     52                                   C                  -
 -                     53                                   C                  -
 -                     54                                   C                  -
 -                     55                                   C                  -
 -                     56                                   C                  -
 -                     57                                   C                  -
 -                     58                                   C                  -
 -                     59                                   C                  -
 -                     60                                   C                  -
 -                     61                                   C                  -
 -                     62                                   C                  -
 -                     63                                   C                  -
 -                     64                                   C                  -
 -                     65                                   C                  -
 -                     66                                   C                  -
 -                     67                                   C                  -
 -                     68                                   C                  -
 -                     69                                   C                  -
 -                     70                                   C                  -
 -                     71                                   C                  -
 -                     72                                   C                  -
 -                     73                                   C                  -
 -                     74                                   C                  -
 -                     75                                   C                  -
 -                     76                                   C                  -
 -                     77                                   C                  -
 -                     78                                   C                  -
 -                     79                                   C                  -
 -                     80                                   C                  -
 -                     81                                   C                  -
 -                     82                                   C                  -
 -                     83                                   C                  -
 -                     84                                   C                  -
 -                     85                                   C                  -
 -                     86                                   C                  -
 -                     87                                   C                  -
 -                     88                                   C                  -
 -                     89                                   C                  -
 -                     90                                   C                  -
 -                     91                                   C                  -
 -                     92                                   C                  -
 -                     93                                   C                  -
 -                     94                                   C                  -
 -                     95                                   C                  -
 -                     96                                   C                  -
 -                     97                                   C                  -
 -                     98                                   C                  -
 -                     99                                   C                  -
 -                    100                                   C                  -
 -                    101                                   C                  -
 -                    102                                   C                  -
 -                    103                                   C                  -
 -                    104                                   C                  -
 -                    105                                   C                  -
 -                    106                                   C                  -
 -                    107                                   C                  -
 -                    108                                   C                  -
 -                    109                                   C                  -
 -                    110                                   C                  -
 -                    111                                   C                  -
 -                    112                                   C                  -
 -                    113                                   Na_ghost           -
 -------------------------------------------------------------------------------

 *******************************************************************************
 *******************************************************************************
 **                                                                           **
 **     #####                         ##              ##                      **
 **    ##   ##            ##          ##              ##                      **
 **   ##     ##                       ##            ######                    **
 **   ##     ##  ##   ##  ##   #####  ##  ##   ####   ##    #####    #####    **
 **   ##     ##  ##   ##  ##  ##      ## ##   ##      ##   ##   ##  ##   ##   **
 **   ##  ## ##  ##   ##  ##  ##      ####     ###    ##   ######   ######    **
 **    ##  ###   ##   ##  ##  ##      ## ##      ##   ##   ##       ##        **
 **     #######   #####   ##   #####  ##  ##  ####    ##    #####   ##        **
 **           ##                                                    ##        **
 **                                                                           **
 **                                                ... make the atoms dance   **
 **                                                                           **
 **            Copyright (C) by CP2K developers group (2000 - 2018)           **
 **                                                                           **
 *******************************************************************************


 TOTAL NUMBERS AND MAXIMUM NUMBERS

  Total number of            - Atomic kinds:                                   2
                             - Atoms:                                        113
                             - Shell sets:                                   113
                             - Shells:                                       565
                             - Primitive Cartesian functions:                567
                             - Cartesian basis functions:                   1577
                             - Spherical basis functions:                   1465

  Maximum angular momentum of- Orbital basis functions:                        2
                             - Local part of the GTH pseudopotential:          2
                             - Non-local part of the GTH pseudopotential:      0


 SCF PARAMETERS         Density guess:                                    ATOMIC
                        --------------------------------------------------------
                        max_scf:                                             400
                        max_scf_history:                                       0
                        max_diis:                                              4
                        --------------------------------------------------------
                        eps_scf:                                        3.00E-07
                        eps_scf_history:                                0.00E+00
                        eps_diis:                                       1.00E-01
                        eps_eigval:                                     1.00E-05
                        --------------------------------------------------------
                        level_shift [a.u.]:                                 0.00
                        added MOs                                       100  100
                        --------------------------------------------------------
                        Mixing method:                            BROYDEN_MIXING
                                                charge density mixing in g-space
                        --------------------------------------------------------
                        Smear method:                                FERMI_DIRAC
                        Electronic temperature [K]:                        300.0
                        Electronic temperature [a.u.]:                  9.50E-04
                        Accuracy threshold:                             1.00E-10
                        --------------------------------------------------------
                        Outer loop SCF in use 
                        No variables optimised in outer loop
                        eps_scf                                         1.00E-06
                        max_scf                                              100
                        DIIS optimization
                        DIIS buffer length                                     3
                        step_size                                       5.00E-01

 Spin 1

 Number of electrons:                                                        224
 Number of occupied orbitals:                                                224
 Number of molecular orbitals:                                               324

 Spin 2

 Number of electrons:                                                        224
 Number of occupied orbitals:                                                224
 Number of molecular orbitals:                                               324

 Number of orbital functions:                                               1465
 Number of independent orbital functions:                                   1465

 Extrapolation method: initial_guess


 SCF WAVEFUNCTION OPTIMIZATION

  Step     Update method      Time    Convergence         Total energy    Change
  ------------------------------------------------------------------------------
     1 NoMix/Diag. 0.10E+00    3.4     0.45132330      -627.8926975268 -6.28E+02
     2 Broy./Diag. 0.10E+00    5.0     0.10848739      -603.5200150774  2.44E+01
     3 Broy./Diag. 0.10E+00    6.6     0.15428878      -611.1927165621 -7.67E+00
     4 Broy./Diag. 0.10E+00    5.5     7.56593218      -625.5428105766 -1.44E+01
     5 Broy./Diag. 0.10E+00    6.8     7.56588792      -607.0333591353  1.85E+01
     6 Broy./Diag. 0.10E+00    6.0     0.43659782      -629.8874774255 -2.29E+01
     7 Broy./Diag. 0.10E+00    7.2     0.11844428      -630.8955164685 -1.01E+00
     8 Broy./Diag. 0.10E+00    6.4     7.69039174      -631.3351510322 -4.40E-01
     9 Broy./Diag. 0.10E+00    7.7     7.69677859      -608.7529129374  2.26E+01
    10 Broy./Diag. 0.10E+00    6.8     7.68072133      -631.3781411496 -2.26E+01
    11 Broy./Diag. 0.10E+00    7.8     7.68075093      -580.9906758925  5.04E+01
    12 Broy./Diag. 0.10E+00    7.1     7.71099515      -627.8261788509 -4.68E+01
    13 Broy./Diag. 0.10E+00    7.3     7.71103286      -608.9156110344  1.89E+01
    14 Broy./Diag. 0.10E+00    7.3     7.59754013      -631.7885529610 -2.29E+01
    15 Broy./Diag. 0.10E+00    7.0     7.59753995      -562.3019367393  6.95E+01
    16 Broy./Diag. 0.10E+00    7.5     7.60899072      -631.8152852443 -6.95E+01
    17 Broy./Diag. 0.10E+00    6.8     7.62712965      -608.5430791181  2.33E+01
    18 Broy./Diag. 0.10E+00    7.6     7.65150913      -608.4743603334  6.87E-02
    19 Broy./Diag. 0.10E+00    6.5     0.34496516      -631.8133815334 -2.33E+01
    20 Broy./Diag. 0.10E+00    7.5     0.34495443      -630.4492086670  1.36E+00
    21 Broy./Diag. 0.10E+00    6.3     0.02688528      -631.8755067884 -1.43E+00
    22 Broy./Diag. 0.10E+00    7.5     0.28985064      -631.9053221573 -2.98E-02
    23 Broy./Diag. 0.10E+00    6.1     0.28983492      -630.8762910107  1.03E+00
    24 Broy./Diag. 0.10E+00    7.5     0.02442093      -631.8860774588 -1.01E+00
    25 Broy./Diag. 0.10E+00    6.1     0.02327186      -631.9509031950 -6.48E-02
    26 Broy./Diag. 0.10E+00    7.6     0.01350303      -632.0197414861 -6.88E-02
    27 Broy./Diag. 0.10E+00    6.3     0.07340634      -632.1573258605 -1.38E-01
    28 Broy./Diag. 0.10E+00    7.6     0.05405444      -632.0446813060  1.13E-01
    29 Broy./Diag. 0.10E+00    6.2     0.02229911      -632.1576649787 -1.13E-01
    30 Broy./Diag. 0.10E+00    7.5     0.00403200      -632.2196026341 -6.19E-02
    31 Broy./Diag. 0.10E+00    6.1     0.01380779      -632.2652244463 -4.56E-02
    32 Broy./Diag. 0.10E+00    7.6     0.01841307      -632.3243843417 -5.92E-02
    33 Broy./Diag. 0.10E+00    6.1     6.44418531      -632.3709337200 -4.65E-02
    34 Broy./Diag. 0.10E+00    7.7     6.44418262      -613.1279481198  1.92E+01
    35 Broy./Diag. 0.10E+00    6.1     0.01096065      -632.3854544302 -1.93E+01
    36 Broy./Diag. 0.10E+00    7.6     0.00352128      -632.4055353836 -2.01E-02
    37 Broy./Diag. 0.10E+00    6.0     0.00501442      -632.4172105711 -1.17E-02
    38 Broy./Diag. 0.10E+00    7.6     0.00939739      -632.4331923966 -1.60E-02
    39 Broy./Diag. 0.10E+00    6.0     0.01222176      -632.4285580312  4.63E-03
    40 Broy./Diag. 0.10E+00    7.7     0.09674468      -632.4166703544  1.19E-02
    41 Broy./Diag. 0.10E+00    5.9     0.10377482      -632.1166221558  3.00E-01
    42 Broy./Diag. 0.10E+00    7.6     0.01939364      -632.4403088552 -3.24E-01
    43 Broy./Diag. 0.10E+00    6.0     0.00702838      -632.4869076248 -4.66E-02
    44 Broy./Diag. 0.10E+00    7.6     0.00638458      -632.5088845798 -2.20E-02
    45 Broy./Diag. 0.10E+00    6.0     0.00357769      -632.5223185850 -1.34E-02
    46 Broy./Diag. 0.10E+00    7.5     0.00449940      -632.5351628292 -1.28E-02
    47 Broy./Diag. 0.10E+00    6.0     0.00324159      -632.5426199311 -7.46E-03
    48 Broy./Diag. 0.10E+00    7.6     0.00311182      -632.5435083219 -8.88E-04
    49 Broy./Diag. 0.10E+00    6.2     0.00713640      -632.5405927777  2.92E-03
    50 Broy./Diag. 0.10E+00    7.6     0.00496099      -632.5502646653 -9.67E-03
    51 Broy./Diag. 0.10E+00    6.2     0.00333735      -632.5519394310 -1.67E-03
    52 Broy./Diag. 0.10E+00    7.5     0.00343157      -632.5497725036  2.17E-03
    53 Broy./Diag. 0.10E+00    6.2     0.00350977      -632.5534105467 -3.64E-03
    54 Broy./Diag. 0.10E+00    7.6     0.00175512      -632.5482906735  5.12E-03
    55 Broy./Diag. 0.10E+00    6.1     0.00121188      -632.5434648951  4.83E-03
    56 Broy./Diag. 0.10E+00    7.6     0.00138702      -632.5400369317  3.43E-03
    57 Broy./Diag. 0.10E+00    6.2     0.00149761      -632.5365148968  3.52E-03
    58 Broy./Diag. 0.10E+00    7.5     0.00408590      -632.5356416524  8.73E-04
    59 Broy./Diag. 0.10E+00    6.2     0.00177214      -632.5312318060  4.41E-03
    60 Broy./Diag. 0.10E+00    7.6     0.00159394      -632.5322774939 -1.05E-03
    61 Broy./Diag. 0.10E+00    6.1     0.00172193      -632.5350397923 -2.76E-03
    62 Broy./Diag. 0.10E+00    7.7     0.00109760      -632.5369836990 -1.94E-03
    63 Broy./Diag. 0.10E+00    6.0     0.00163944      -632.5402669308 -3.28E-03
    64 Broy./Diag. 0.10E+00    7.7     0.00145311      -632.5439929183 -3.73E-03
    65 Broy./Diag. 0.10E+00    6.1     0.00090761      -632.5457998511 -1.81E-03
    66 Broy./Diag. 0.10E+00    7.6     0.00141116      -632.5488963208 -3.10E-03
    67 Broy./Diag. 0.10E+00    6.0     0.00100850      -632.5521161182 -3.22E-03
    68 Broy./Diag. 0.10E+00    7.5     0.00054746      -632.5550776211 -2.96E-03
    69 Broy./Diag. 0.10E+00    6.1     0.00061578      -632.5570202017 -1.94E-03
    70 Broy./Diag. 0.10E+00    7.6     0.00032626      -632.5585473406 -1.53E-03
    71 Broy./Diag. 0.10E+00    6.0     0.00030494      -632.5588338400 -2.86E-04
    72 Broy./Diag. 0.10E+00    7.4     0.00020569      -632.5593764545 -5.43E-04
    73 Broy./Diag. 0.10E+00    6.6     0.00025149      -632.5597208268 -3.44E-04
    74 Broy./Diag. 0.10E+00    7.1     0.00024629      -632.5606665493 -9.46E-04
    75 Broy./Diag. 0.10E+00    5.7     0.00042140      -632.5624971866 -1.83E-03
    76 Broy./Diag. 0.10E+00    7.4     0.00024121      -632.5641416296 -1.64E-03
    77 Broy./Diag. 0.10E+00    6.1     0.00015027      -632.5661871560 -2.05E-03
    78 Broy./Diag. 0.10E+00    7.4     0.00011782      -632.5678555527 -1.67E-03
    79 Broy./Diag. 0.10E+00    6.4     0.00005416      -632.5693152182 -1.46E-03
    80 Broy./Diag. 0.10E+00    7.3     0.00006060      -632.5700754971 -7.60E-04
    81 Broy./Diag. 0.10E+00    6.7     0.00006771      -632.5702318003 -1.56E-04
    82 Broy./Diag. 0.10E+00    7.3     0.00008692      -632.5703777681 -1.46E-04
    83 Broy./Diag. 0.10E+00    7.0     0.00006926      -632.5705160445 -1.38E-04
    84 Broy./Diag. 0.10E+00    7.3     0.00009077      -632.5704691841  4.69E-05
    85 Broy./Diag. 0.10E+00    7.4     0.00005944      -632.5701994406  2.70E-04
    86 Broy./Diag. 0.10E+00    6.8     0.00005586      -632.5698808942  3.19E-04
    87 Broy./Diag. 0.10E+00    7.5     0.00002987      -632.5695699195  3.11E-04
    88 Broy./Diag. 0.10E+00    6.5     0.00001786      -632.5694517985  1.18E-04
    89 Broy./Diag. 0.10E+00    7.6     0.00004340      -632.5697412684 -2.89E-04
    90 Broy./Diag. 0.10E+00    6.5     0.00002946      -632.5699444327 -2.03E-04
    91 Broy./Diag. 0.10E+00    6.1     0.00002829      -632.5701695688 -2.25E-04
    92 Broy./Diag. 0.10E+00    5.9     0.00001327      -632.5703367619 -1.67E-04
    93 Broy./Diag. 0.10E+00    6.3     0.00001730      -632.5703693387 -3.26E-05
    94 Broy./Diag. 0.10E+00    6.4     0.00001637      -632.5703400665  2.93E-05
    95 Broy./Diag. 0.10E+00    6.5     0.00001072      -632.5703461983 -6.13E-06
    96 Broy./Diag. 0.10E+00    6.3     0.00000837      -632.5703388933  7.30E-06
    97 Broy./Diag. 0.10E+00    6.1     0.00001121      -632.5703181133  2.08E-05
    98 Broy./Diag. 0.10E+00    6.6     0.00001195      -632.5703530060 -3.49E-05
    99 Broy./Diag. 0.10E+00    6.7     0.00001108      -632.5703984067 -4.54E-05
   100 Broy./Diag. 0.10E+00    6.5     0.00001229      -632.5704776685 -7.93E-05
   101 Broy./Diag. 0.10E+00    6.2     0.00000870      -632.5705304815 -5.28E-05
   102 Broy./Diag. 0.10E+00    6.9     0.00000887      -632.5705614869 -3.10E-05
   103 Broy./Diag. 0.10E+00    6.7     0.00001131      -632.5705945703 -3.31E-05
   104 Broy./Diag. 0.10E+00    6.1     0.00000871      -632.5706410366 -4.65E-05
   105 Broy./Diag. 0.10E+00    6.9     0.00000498      -632.5706931380 -5.21E-05
   106 Broy./Diag. 0.10E+00    7.0     0.00000602      -632.5707343213 -4.12E-05
   107 Broy./Diag. 0.10E+00    6.2     0.00000587      -632.5707646831 -3.04E-05
   108 Broy./Diag. 0.10E+00    7.2     0.00000723      -632.5707783824 -1.37E-05
   109 Broy./Diag. 0.10E+00    7.0     0.00000980      -632.5707957487 -1.74E-05
   110 Broy./Diag. 0.10E+00    6.5     0.00000648      -632.5708160716 -2.03E-05
   111 Broy./Diag. 0.10E+00    7.3     0.00000470      -632.5708289002 -1.28E-05
   112 Broy./Diag. 0.10E+00    6.1     0.00000464      -632.5708370943 -8.19E-06
   113 Broy./Diag. 0.10E+00    7.3     0.00000564      -632.5708442197 -7.13E-06
   114 Broy./Diag. 0.10E+00    6.1     0.00000247      -632.5708533939 -9.17E-06
   115 Broy./Diag. 0.10E+00    7.6     0.00000437      -632.5708537763 -3.82E-07
   116 Broy./Diag. 0.10E+00    6.2     0.00000430      -632.5708614288 -7.65E-06
   117 Broy./Diag. 0.10E+00    7.5     0.00000727      -632.5708652813 -3.85E-06
   118 Broy./Diag. 0.10E+00    6.2     0.00000622      -632.5708665428 -1.26E-06
   119 Broy./Diag. 0.10E+00    7.6     0.00000260      -632.5708672464 -7.04E-07
   120 Broy./Diag. 0.10E+00    6.1     0.00000318      -632.5708688034 -1.56E-06
   121 Broy./Diag. 0.10E+00    7.5     0.00000321      -632.5708690622 -2.59E-07
   122 Broy./Diag. 0.10E+00    6.1     0.00001020      -632.5708695828 -5.21E-07
   123 Broy./Diag. 0.10E+00    7.6     0.00000523      -632.5708705217 -9.39E-07
   124 Broy./Diag. 0.10E+00    6.2     0.00000406      -632.5708679609  2.56E-06
   125 Broy./Diag. 0.10E+00    7.5     0.00000146      -632.5708656496  2.31E-06
   126 Broy./Diag. 0.10E+00    6.1     0.00000518      -632.5708655850  6.46E-08
   127 Broy./Diag. 0.10E+00    7.5     0.00000532      -632.5708672452 -1.66E-06
   128 Broy./Diag. 0.10E+00    6.1     0.00000317      -632.5708659989  1.25E-06
   129 Broy./Diag. 0.10E+00    7.6     0.00000239      -632.5708663675 -3.69E-07
   130 Broy./Diag. 0.10E+00    6.1     0.00000254      -632.5708662499  1.18E-07
   131 Broy./Diag. 0.10E+00    7.5     0.00000512      -632.5708661151  1.35E-07
   132 Broy./Diag. 0.10E+00    6.3     0.00000195      -632.5708660815  3.36E-08
   133 Broy./Diag. 0.10E+00    7.5     0.00000358      -632.5708656784  4.03E-07
   134 Broy./Diag. 0.10E+00    6.2     0.00000158      -632.5708662520 -5.74E-07
   135 Broy./Diag. 0.10E+00    7.5     0.00000195      -632.5708661769  7.51E-08
   136 Broy./Diag. 0.10E+00    6.2     0.00000421      -632.5708671089 -9.32E-07
   137 Broy./Diag. 0.10E+00    7.5     0.00000301      -632.5708667828  3.26E-07
   138 Broy./Diag. 0.10E+00    6.3     0.00000358      -632.5708667163  6.65E-08
   139 Broy./Diag. 0.10E+00    7.5     0.00000260      -632.5708671378 -4.21E-07
   140 Broy./Diag. 0.10E+00    6.1     0.00000365      -632.5708674250 -2.87E-07
   141 Broy./Diag. 0.10E+00    7.5     0.00000326      -632.5708668684  5.57E-07
   142 Broy./Diag. 0.10E+00    6.1     0.00000323      -632.5708673035 -4.35E-07
   143 Broy./Diag. 0.10E+00    7.4     0.00000167      -632.5708673154 -1.19E-08
   144 Broy./Diag. 0.10E+00    6.3     0.00000076      -632.5708674760 -1.61E-07
   145 Broy./Diag. 0.10E+00    7.5     0.00000169      -632.5708673772  9.88E-08
   146 Broy./Diag. 0.10E+00    6.2     0.00000077      -632.5708676987 -3.22E-07
   147 Broy./Diag. 0.10E+00    7.4     0.00000097      -632.5708677127 -1.40E-08
   148 Broy./Diag. 0.10E+00    6.2     0.00000125      -632.5708676432  6.95E-08
   149 Broy./Diag. 0.10E+00    7.6     0.00000140      -632.5708678742 -2.31E-07
   150 Broy./Diag. 0.10E+00    6.1     0.00000222      -632.5708677085  1.66E-07
   151 Broy./Diag. 0.10E+00    7.5     0.00000304      -632.5708677751 -6.66E-08
   152 Broy./Diag. 0.10E+00    6.3     0.00000155      -632.5708678874 -1.12E-07
   153 Broy./Diag. 0.10E+00    7.3     0.00000416      -632.5708676752  2.12E-07
   154 Broy./Diag. 0.10E+00    6.2     0.00000221      -632.5708682660 -5.91E-07
   155 Broy./Diag. 0.10E+00    7.3     0.00000170      -632.5708675079  7.58E-07
   156 Broy./Diag. 0.10E+00    6.1     0.00000234      -632.5708673034  2.04E-07
   157 Broy./Diag. 0.10E+00    7.4     0.00000080      -632.5708670246  2.79E-07
   158 Broy./Diag. 0.10E+00    6.1     0.00000191      -632.5708669544  7.01E-08
   159 Broy./Diag. 0.10E+00    7.7     0.00000188      -632.5708678962 -9.42E-07
   160 Broy./Diag. 0.10E+00    6.4     0.00000230      -632.5708672844  6.12E-07
   161 Broy./Diag. 0.10E+00    7.6     0.00000382      -632.5708673295 -4.50E-08
   162 Broy./Diag. 0.10E+00    7.0     0.00000222      -632.5708671345  1.95E-07
   163 Broy./Diag. 0.10E+00    7.4     0.00000178      -632.5708668122  3.22E-07
   164 Broy./Diag. 0.10E+00    7.1     0.00000098      -632.5708679933 -1.18E-06
   165 Broy./Diag. 0.10E+00    7.4     0.00000148      -632.5708676882  3.05E-07
   166 Broy./Diag. 0.10E+00    7.5     0.00000200      -632.5708679630 -2.75E-07
   167 Broy./Diag. 0.10E+00    7.1     0.00000129      -632.5708677706  1.92E-07
   168 Broy./Diag. 0.10E+00    7.7     0.00000099      -632.5708673289  4.42E-07
   169 Broy./Diag. 0.10E+00    6.9     0.00000314      -632.5708676835 -3.55E-07
   170 Broy./Diag. 0.10E+00    7.7     0.00000253      -632.5708672595  4.24E-07
   171 Broy./Diag. 0.10E+00    7.2     0.00000241      -632.5708681647 -9.05E-07
   172 Broy./Diag. 0.10E+00    7.4     0.00000270      -632.5708671497  1.01E-06
   173 Broy./Diag. 0.10E+00    7.9     0.00000202      -632.5708670181  1.32E-07
   174 Broy./Diag. 0.10E+00    6.9     0.00000091      -632.5708673931 -3.75E-07
   175 Broy./Diag. 0.10E+00    7.8     0.00000128      -632.5708674068 -1.37E-08
   176 Broy./Diag. 0.10E+00    6.7     0.00000107      -632.5708673674  3.94E-08
   177 Broy./Diag. 0.10E+00    7.8     0.00000065      -632.5708674688 -1.01E-07
   178 Broy./Diag. 0.10E+00    7.0     0.00000333      -632.5708676425 -1.74E-07
   179 Broy./Diag. 0.10E+00    7.3     0.00000387      -632.5708674501  1.92E-07
   180 Broy./Diag. 0.10E+00    7.1     0.00000298      -632.5708675729 -1.23E-07
   181 Broy./Diag. 0.10E+00    7.2     0.00000095      -632.5708677481 -1.75E-07
   182 Broy./Diag. 0.10E+00    7.2     0.00000278      -632.5708677044  4.37E-08
   183 Broy./Diag. 0.10E+00    7.0     0.00000094      -632.5708673427  3.62E-07
   184 Broy./Diag. 0.10E+00    7.3     0.00000270      -632.5708673119  3.08E-08
   185 Broy./Diag. 0.10E+00    6.8     0.00000041      -632.5708670524  2.59E-07
   186 Broy./Diag. 0.10E+00    7.6     0.00000064      -632.5708670525 -1.14E-10
   187 Broy./Diag. 0.10E+00    6.5     0.00000157      -632.5708671093 -5.68E-08
   188 Broy./Diag. 0.10E+00    7.5     0.00000181      -632.5708669869  1.22E-07
   189 Broy./Diag. 0.10E+00    6.2     0.00000068      -632.5708672292 -2.42E-07
   190 Broy./Diag. 0.10E+00    7.6     0.00000052      -632.5708670399  1.89E-07
   191 Broy./Diag. 0.10E+00    6.2     0.00000051      -632.5708669993  4.07E-08
   192 Broy./Diag. 0.10E+00    7.4     0.00000046      -632.5708671128 -1.14E-07
   193 Broy./Diag. 0.10E+00    6.3     0.00000312      -632.5708670873  2.56E-08
   194 Broy./Diag. 0.10E+00    7.5     0.00000426      -632.5708666632  4.24E-07
   195 Broy./Diag. 0.10E+00    6.3     0.00000405      -632.5708671964 -5.33E-07
   196 Broy./Diag. 0.10E+00    7.6     0.00000093      -632.5708671061  9.03E-08
   197 Broy./Diag. 0.10E+00    6.1     0.00000149      -632.5708671550 -4.88E-08
   198 Broy./Diag. 0.10E+00    7.5     0.00000491      -632.5708674087 -2.54E-07
   199 Broy./Diag. 0.10E+00    6.2     0.00000037      -632.5708668511  5.58E-07
   200 Broy./Diag. 0.10E+00    7.5     0.00000107      -632.5708668023  4.87E-08
   201 Broy./Diag. 0.10E+00    6.0     0.00000286      -632.5708666477  1.55E-07
   202 Broy./Diag. 0.10E+00    7.5     0.00000124      -632.5708670721 -4.24E-07
   203 Broy./Diag. 0.10E+00    6.3     0.00000064      -632.5708669807  9.14E-08
   204 Broy./Diag. 0.10E+00    7.6     0.00000298      -632.5708668994  8.13E-08
   205 Broy./Diag. 0.10E+00    6.1     0.00000205      -632.5708670914 -1.92E-07
   206 Broy./Diag. 0.10E+00    7.6     0.00000107      -632.5708667653  3.26E-07
   207 Broy./Diag. 0.10E+00    6.2     0.00000289      -632.5708670572 -2.92E-07
   208 Broy./Diag. 0.10E+00    7.5     0.00000080      -632.5708668183  2.39E-07
   209 Broy./Diag. 0.10E+00    6.2     0.00000080      -632.5708671004 -2.82E-07
   210 Broy./Diag. 0.10E+00    7.5     0.00000054      -632.5708669643  1.36E-07
   211 Broy./Diag. 0.10E+00    6.0     0.00000108      -632.5708669874 -2.31E-08
   212 Broy./Diag. 0.10E+00    7.6     0.00000129      -632.5708670351 -4.78E-08
   213 Broy./Diag. 0.10E+00    6.1     0.00000141      -632.5708670127  2.24E-08
   214 Broy./Diag. 0.10E+00    7.6     0.00000211      -632.5708669702  4.26E-08
   215 Broy./Diag. 0.10E+00    6.3     0.00000744      -632.5708672384 -2.68E-07
   216 Broy./Diag. 0.10E+00    7.5     0.00000190      -632.5708667037  5.35E-07
   217 Broy./Diag. 0.10E+00    6.1     0.00000146      -632.5708666011  1.03E-07
   218 Broy./Diag. 0.10E+00    7.5     0.00000197      -632.5708662902  3.11E-07
   219 Broy./Diag. 0.10E+00    6.1     0.00000024      -632.5708661078  1.82E-07

  *** SCF run converged in   219 steps ***


  Electronic density on regular grids:       -448.0000000000        0.0000000000
  Core density on regular grids:              447.9999999996       -0.0000000004
  Total charge density on r-space grids:       -0.0000000004
  Total charge density g-space grids:          -0.0000000004

  Overlap energy of the core charge distribution:               0.00001865557362
  Self energy of the core charge distribution:              -1493.52088779770361
  Core Hamiltonian energy:                                    466.88041740625829
  Hartree energy:                                             585.25661866370501
  Exchange-correlation energy:                               -190.95954675685783
  Dispersion energy:                                           -0.22075422073812
  Electronic entropic energy:                                  -0.00673205853278
  Fermi energy:                                                -0.14666033798219

  Total energy:                                              -632.57086610778777

  outer SCF iter =    1 RMS gradient =   0.24E-06 energy =       -632.5708661078
  outer SCF loop converged in   1 iterations or  219 steps


  Integrated absolute spin density  :                               0.0000666739
  WARNING: S**2 computation does not yet treat fractional occupied orbitals

 *** WARNING in qs_loc_utils.F:1387 :: User requested the calculation of ***
 *** the localized wavefunction but the section LOCALIZE was not         ***
 *** specified. Localization will not be performed!                      ***


 -------------------------------------------------------------------------------
 -                                                                             -
 -  BSSE CALCULATION         FRAGMENT CONF: 11        FRAGMENT SUBCONF: 01     -
 -                           CHARGE =     0           MULTIPLICITY =     0     -
 -                                                                             -
 -                 ATOM INDEX                              ATOM NAME           -
 -                 ----------                              ---------           -
 -                      1                                   C_ghost            -
 -                      2                                   C_ghost            -
 -                      3                                   C_ghost            -
 -                      4                                   C_ghost            -
 -                      5                                   C_ghost            -
 -                      6                                   C_ghost            -
 -                      7                                   C_ghost            -
 -                      8                                   C_ghost            -
 -                      9                                   C_ghost            -
 -                     10                                   C_ghost            -
 -                     11                                   C_ghost            -
 -                     12                                   C_ghost            -
 -                     13                                   C_ghost            -
 -                     14                                   C_ghost            -
 -                     15                                   C_ghost            -
 -                     16                                   C_ghost            -
 -                     17                                   C_ghost            -
 -                     18                                   C_ghost            -
 -                     19                                   C_ghost            -
 -                     20                                   C_ghost            -
 -                     21                                   C_ghost            -
 -                     22                                   C_ghost            -
 -                     23                                   C_ghost            -
 -                     24                                   C_ghost            -
 -                     25                                   C_ghost            -
 -                     26                                   C_ghost            -
 -                     27                                   C_ghost            -
 -                     28                                   C_ghost            -
 -                     29                                   C_ghost            -
 -                     30                                   C_ghost            -
 -                     31                                   C_ghost            -
 -                     32                                   C_ghost            -
 -                     33                                   C_ghost            -
 -                     34                                   C_ghost            -
 -                     35                                   C_ghost            -
 -                     36                                   C_ghost            -
 -                     37                                   C_ghost            -
 -                     38                                   C_ghost            -
 -                     39                                   C_ghost            -
 -                     40                                   C_ghost            -
 -                     41                                   C_ghost            -
 -                     42                                   C_ghost            -
 -                     43                                   C_ghost            -
 -                     44                                   C_ghost            -
 -                     45                                   C_ghost            -
 -                     46                                   C_ghost            -
 -                     47                                   C_ghost            -
 -                     48                                   C_ghost            -
 -                     49                                   C_ghost            -
 -                     50                                   C_ghost            -
 -                     51                                   C_ghost            -
 -                     52                                   C_ghost            -
 -                     53                                   C_ghost            -
 -                     54                                   C_ghost            -
 -                     55                                   C_ghost            -
 -                     56                                   C_ghost            -
 -                     57                                   C_ghost            -
 -                     58                                   C_ghost            -
 -                     59                                   C_ghost            -
 -                     60                                   C_ghost            -
 -                     61                                   C_ghost            -
 -                     62                                   C_ghost            -
 -                     63                                   C_ghost            -
 -                     64                                   C_ghost            -
 -                     65                                   C_ghost            -
 -                     66                                   C_ghost            -
 -                     67                                   C_ghost            -
 -                     68                                   C_ghost            -
 -                     69                                   C_ghost            -
 -                     70                                   C_ghost            -
 -                     71                                   C_ghost            -
 -                     72                                   C_ghost            -
 -                     73                                   C_ghost            -
 -                     74                                   C_ghost            -
 -                     75                                   C_ghost            -
 -                     76                                   C_ghost            -
 -                     77                                   C_ghost            -
 -                     78                                   C_ghost            -
 -                     79                                   C_ghost            -
 -                     80                                   C_ghost            -
 -                     81                                   C_ghost            -
 -                     82                                   C_ghost            -
 -                     83                                   C_ghost            -
 -                     84                                   C_ghost            -
 -                     85                                   C_ghost            -
 -                     86                                   C_ghost            -
 -                     87                                   C_ghost            -
 -                     88                                   C_ghost            -
 -                     89                                   C_ghost            -
 -                     90                                   C_ghost            -
 -                     91                                   C_ghost            -
 -                     92                                   C_ghost            -
 -                     93                                   C_ghost            -
 -                     94                                   C_ghost            -
 -                     95                                   C_ghost            -
 -                     96                                   C_ghost            -
 -                     97                                   C_ghost            -
 -                     98                                   C_ghost            -
 -                     99                                   C_ghost            -
 -                    100                                   C_ghost            -
 -                    101                                   C_ghost            -
 -                    102                                   C_ghost            -
 -                    103                                   C_ghost            -
 -                    104                                   C_ghost            -
 -                    105                                   C_ghost            -
 -                    106                                   C_ghost            -
 -                    107                                   C_ghost            -
 -                    108                                   C_ghost            -
 -                    109                                   C_ghost            -
 -                    110                                   C_ghost            -
 -                    111                                   C_ghost            -
 -                    112                                   C_ghost            -
 -                    113                                   Na                 -
 -------------------------------------------------------------------------------

 *******************************************************************************
 *******************************************************************************
 **                                                                           **
 **     #####                         ##              ##                      **
 **    ##   ##            ##          ##              ##                      **
 **   ##     ##                       ##            ######                    **
 **   ##     ##  ##   ##  ##   #####  ##  ##   ####   ##    #####    #####    **
 **   ##     ##  ##   ##  ##  ##      ## ##   ##      ##   ##   ##  ##   ##   **
 **   ##  ## ##  ##   ##  ##  ##      ####     ###    ##   ######   ######    **
 **    ##  ###   ##   ##  ##  ##      ## ##      ##   ##   ##       ##        **
 **     #######   #####   ##   #####  ##  ##  ####    ##    #####   ##        **
 **           ##                                                    ##        **
 **                                                                           **
 **                                                ... make the atoms dance   **
 **                                                                           **
 **            Copyright (C) by CP2K developers group (2000 - 2018)           **
 **                                                                           **
 *******************************************************************************


 TOTAL NUMBERS AND MAXIMUM NUMBERS

  Total number of            - Atomic kinds:                                   2
                             - Atoms:                                        113
                             - Shell sets:                                   113
                             - Shells:                                       565
                             - Primitive Cartesian functions:                567
                             - Cartesian basis functions:                   1577
                             - Spherical basis functions:                   1465

  Maximum angular momentum of- Orbital basis functions:                        2
                             - Local part of the GTH pseudopotential:          2
                             - Non-local part of the GTH pseudopotential:      1


 SCF PARAMETERS         Density guess:                                    ATOMIC
                        --------------------------------------------------------
                        max_scf:                                             400
                        max_scf_history:                                       0
                        max_diis:                                              4
                        --------------------------------------------------------
                        eps_scf:                                        3.00E-07
                        eps_scf_history:                                0.00E+00
                        eps_diis:                                       1.00E-01
                        eps_eigval:                                     1.00E-05
                        --------------------------------------------------------
                        level_shift [a.u.]:                                 0.00
                        added MOs                                       100  100
                        --------------------------------------------------------
                        Mixing method:                            BROYDEN_MIXING
                                                charge density mixing in g-space
                        --------------------------------------------------------
                        Smear method:                                FERMI_DIRAC
                        Electronic temperature [K]:                        300.0
                        Electronic temperature [a.u.]:                  9.50E-04
                        Accuracy threshold:                             1.00E-10
                        --------------------------------------------------------
                        Outer loop SCF in use 
                        No variables optimised in outer loop
                        eps_scf                                         1.00E-06
                        max_scf                                              100
                        DIIS optimization
                        DIIS buffer length                                     3
                        step_size                                       5.00E-01

 Spin 1

 Number of electrons:                                                          5
 Number of occupied orbitals:                                                  5
 Number of molecular orbitals:                                               105

 Spin 2

 Number of electrons:                                                          4
 Number of occupied orbitals:                                                  4
 Number of molecular orbitals:                                               104

 Number of orbital functions:                                               1465
 Number of independent orbital functions:                                   1465

 Extrapolation method: initial_guess


 SCF WAVEFUNCTION OPTIMIZATION

  Step     Update method      Time    Convergence         Total energy    Change
  ------------------------------------------------------------------------------
     1 NoMix/Diag. 0.10E+00    3.2     0.36224106       -47.1649297304 -4.72E+01
     2 Broy./Diag. 0.10E+00    5.0     0.01264080       -47.1438813878  2.10E-02
     3 Broy./Diag. 0.10E+00    6.7     0.07548654       -47.1655566755 -2.17E-02
     4 Broy./Diag. 0.10E+00    5.4     0.00074322       -47.1487989108  1.68E-02
     5 Broy./Diag. 0.10E+00    6.8     0.00823720       -47.1591557902 -1.04E-02
     6 Broy./Diag. 0.10E+00    5.9     0.00118408       -47.1527223439  6.43E-03
     7 Broy./Diag. 0.10E+00    7.1     0.01208695       -47.1572715101 -4.55E-03
     8 Broy./Diag. 0.10E+00    6.3     0.00504676       -47.1798101009 -2.25E-02
     9 Broy./Diag. 0.10E+00    7.5     0.00226065       -47.1708704920  8.94E-03
    10 Broy./Diag. 0.10E+00    6.7     0.00481730       -47.1731145691 -2.24E-03
    11 Broy./Diag. 0.10E+00    7.9     0.00139297       -47.1761149791 -3.00E-03
    12 Broy./Diag. 0.10E+00    6.8     0.00195228       -47.1760486132  6.64E-05
    13 Broy./Diag. 0.10E+00    7.5     0.00310665       -47.1734634172  2.59E-03
    14 Broy./Diag. 0.10E+00    7.5     0.00060505       -47.1736557671 -1.92E-04
    15 Broy./Diag. 0.10E+00    7.4     0.00120701       -47.1679067636  5.75E-03
    16 Broy./Diag. 0.10E+00    7.6     0.00035871       -47.1665434242  1.36E-03
    17 Broy./Diag. 0.10E+00    7.0     0.00042917       -47.1653808628  1.16E-03
    18 Broy./Diag. 0.10E+00    7.8     0.00037999       -47.1517089106  1.37E-02
    19 Broy./Diag. 0.10E+00    6.7     0.00030250       -47.1482466617  3.46E-03
    20 Broy./Diag. 0.10E+00    7.8     0.00013923       -47.1416335737  6.61E-03
    21 Broy./Diag. 0.10E+00    6.9     0.00016058       -47.1397952784  1.84E-03
    22 Broy./Diag. 0.10E+00    7.3     0.00015896       -47.1381933497  1.60E-03
    23 Broy./Diag. 0.10E+00    7.1     0.00022071       -47.1391631216 -9.70E-04
    24 Broy./Diag. 0.10E+00    7.2     0.00020857       -47.1404131946 -1.25E-03
    25 Broy./Diag. 0.10E+00    7.2     0.00008192       -47.1432968090 -2.88E-03
    26 Broy./Diag. 0.10E+00    7.0     0.00020220       -47.1529042895 -9.61E-03
    27 Broy./Diag. 0.10E+00    7.4     0.00004351       -47.1570372125 -4.13E-03
    28 Broy./Diag. 0.10E+00    6.7     0.00024258       -47.1646183201 -7.58E-03
    29 Broy./Diag. 0.10E+00    7.5     0.00003313       -47.1666017151 -1.98E-03
    30 Broy./Diag. 0.10E+00    6.3     0.00012000       -47.1625632927  4.04E-03
    31 Broy./Diag. 0.10E+00    7.6     0.00008631       -47.1613522099  1.21E-03
    32 Broy./Diag. 0.10E+00    6.2     0.00016436       -47.1595139798  1.84E-03
    33 Broy./Diag. 0.10E+00    7.6     0.00012544       -47.1591246845  3.89E-04
    34 Broy./Diag. 0.10E+00    6.4     0.00015912       -47.1580288302  1.10E-03
    35 Broy./Diag. 0.10E+00    7.5     0.00003550       -47.1569636233  1.07E-03
    36 Broy./Diag. 0.10E+00    6.2     0.00009936       -47.1565521578  4.11E-04
    37 Broy./Diag. 0.10E+00    7.5     0.00005631       -47.1563036740  2.48E-04
    38 Broy./Diag. 0.10E+00    6.2     0.00005242       -47.1558896586  4.14E-04
    39 Broy./Diag. 0.10E+00    7.4     0.00002741       -47.1558884852  1.17E-06
    40 Broy./Diag. 0.10E+00    6.2     0.00002808       -47.1560834593 -1.95E-04
    41 Broy./Diag. 0.10E+00    7.4     0.00003957       -47.1559000058  1.83E-04
    42 Broy./Diag. 0.10E+00    6.2     0.00001878       -47.1557893628  1.11E-04
    43 Broy./Diag. 0.10E+00    7.6     0.00001931       -47.1557468579  4.25E-05
    44 Broy./Diag. 0.10E+00    6.2     0.00000816       -47.1556283391  1.19E-04
    45 Broy./Diag. 0.10E+00    7.5     0.00002570       -47.1557283319 -1.00E-04
    46 Broy./Diag. 0.10E+00    6.2     0.00000694       -47.1558147870 -8.65E-05
    47 Broy./Diag. 0.10E+00    7.6     0.00000889       -47.1558280559 -1.33E-05
    48 Broy./Diag. 0.10E+00    6.2     0.00000888       -47.1558824934 -5.44E-05
    49 Broy./Diag. 0.10E+00    7.5     0.00000355       -47.1559086861 -2.62E-05
    50 Broy./Diag. 0.10E+00    6.1     0.00000732       -47.1558561990  5.25E-05
    51 Broy./Diag. 0.10E+00    7.3     0.00001164       -47.1558281689  2.80E-05
    52 Broy./Diag. 0.10E+00    6.2     0.00000709       -47.1558555300 -2.74E-05
    53 Broy./Diag. 0.10E+00    7.6     0.00000720       -47.1558394726  1.61E-05
    54 Broy./Diag. 0.10E+00    6.5     0.00000840       -47.1558359469  3.53E-06
    55 Broy./Diag. 0.10E+00    7.5     0.00000498       -47.1558535767 -1.76E-05
    56 Broy./Diag. 0.10E+00    6.9     0.00000479       -47.1558312722  2.23E-05
    57 Broy./Diag. 0.10E+00    7.4     0.00000448       -47.1558371753 -5.90E-06
    58 Broy./Diag. 0.10E+00    6.5     0.00000706       -47.1558371556  1.97E-08
    59 Broy./Diag. 0.10E+00    7.5     0.00002153       -47.1558314374  5.72E-06
    60 Broy./Diag. 0.10E+00    7.0     0.00000679       -47.1558041649  2.73E-05
    61 Broy./Diag. 0.10E+00    7.5     0.00000394       -47.1558024394  1.73E-06
    62 Broy./Diag. 0.10E+00    6.4     0.00000984       -47.1557998332  2.61E-06
    63 Broy./Diag. 0.10E+00    7.6     0.00001000       -47.1558272136 -2.74E-05
    64 Broy./Diag. 0.10E+00    6.3     0.00001078       -47.1558720011 -4.48E-05
    65 Broy./Diag. 0.10E+00    7.7     0.00000801       -47.1558858695 -1.39E-05
    66 Broy./Diag. 0.10E+00    6.4     0.00000367       -47.1558891025 -3.23E-06
    67 Broy./Diag. 0.10E+00    7.7     0.00000393       -47.1558835376  5.56E-06
    68 Broy./Diag. 0.10E+00    6.9     0.00000495       -47.1558855485 -2.01E-06
    69 Broy./Diag. 0.10E+00    7.4     0.00000638       -47.1558790482  6.50E-06
    70 Broy./Diag. 0.10E+00    7.2     0.00001049       -47.1558724144  6.63E-06
    71 Broy./Diag. 0.10E+00    7.1     0.00001261       -47.1558639130  8.50E-06
    72 Broy./Diag. 0.10E+00    7.3     0.00000663       -47.1558766478 -1.27E-05
    73 Broy./Diag. 0.10E+00    6.7     0.00000357       -47.1558811973 -4.55E-06
    74 Broy./Diag. 0.10E+00    7.4     0.00000352       -47.1558845049 -3.31E-06
    75 Broy./Diag. 0.10E+00    6.6     0.00000531       -47.1558772598  7.25E-06
    76 Broy./Diag. 0.10E+00    7.8     0.00000369       -47.1558939531 -1.67E-05
    77 Broy./Diag. 0.10E+00    6.2     0.00000296       -47.1558929425  1.01E-06
    78 Broy./Diag. 0.10E+00    7.5     0.00000206       -47.1559073111 -1.44E-05
    79 Broy./Diag. 0.10E+00    6.3     0.00000284       -47.1559033569  3.95E-06
    80 Broy./Diag. 0.10E+00    7.7     0.00000370       -47.1559158204 -1.25E-05
    81 Broy./Diag. 0.10E+00    6.3     0.00000204       -47.1559183628 -2.54E-06
    82 Broy./Diag. 0.10E+00    7.8     0.00000610       -47.1559167819  1.58E-06
    83 Broy./Diag. 0.10E+00    6.9     0.00000173       -47.1559329207 -1.61E-05
    84 Broy./Diag. 0.10E+00    7.5     0.00000535       -47.1558831586  4.98E-05
    85 Broy./Diag. 0.10E+00    7.1     0.00000453       -47.1558528211  3.03E-05
    86 Broy./Diag. 0.10E+00    7.1     0.00000248       -47.1558226913  3.01E-05
    87 Broy./Diag. 0.10E+00    7.4     0.00000197       -47.1558131494  9.54E-06
    88 Broy./Diag. 0.10E+00    6.7     0.00000173       -47.1558184842 -5.33E-06
    89 Broy./Diag. 0.10E+00    7.6     0.00000337       -47.1558228027 -4.32E-06
    90 Broy./Diag. 0.10E+00    6.5     0.00000350       -47.1558319982 -9.20E-06
    91 Broy./Diag. 0.10E+00    7.5     0.00000230       -47.1558326537 -6.55E-07
    92 Broy./Diag. 0.10E+00    6.2     0.00000207       -47.1558262003  6.45E-06
    93 Broy./Diag. 0.10E+00    7.4     0.00000244       -47.1558157298  1.05E-05
    94 Broy./Diag. 0.10E+00    6.3     0.00000168       -47.1558251120 -9.38E-06
    95 Broy./Diag. 0.10E+00    7.7     0.00000329       -47.1558600849 -3.50E-05
    96 Broy./Diag. 0.10E+00    6.4     0.00000498       -47.1558662503 -6.17E-06
    97 Broy./Diag. 0.10E+00    7.7     0.00000342       -47.1558360261  3.02E-05
    98 Broy./Diag. 0.10E+00    7.0     0.00000184       -47.1558219384  1.41E-05
    99 Broy./Diag. 0.10E+00    7.4     0.00000251       -47.1558215065  4.32E-07
   100 Broy./Diag. 0.10E+00    7.1     0.00000199       -47.1558205067  1.00E-06
   101 Broy./Diag. 0.10E+00    7.1     0.00000177       -47.1558216595 -1.15E-06
   102 Broy./Diag. 0.10E+00    7.5     0.00000137       -47.1558232706 -1.61E-06
   103 Broy./Diag. 0.10E+00    6.7     0.00000614       -47.1558242870 -1.02E-06
   104 Broy./Diag. 0.10E+00    7.4     0.00000255       -47.1558446606 -2.04E-05
   105 Broy./Diag. 0.10E+00    6.5     0.00000306       -47.1558552853 -1.06E-05
   106 Broy./Diag. 0.10E+00    7.6     0.00000111       -47.1558610824 -5.80E-06
   107 Broy./Diag. 0.10E+00    6.3     0.00000059       -47.1558625253 -1.44E-06
   108 Broy./Diag. 0.10E+00    7.6     0.00000062       -47.1558632362 -7.11E-07
   109 Broy./Diag. 0.10E+00    6.3     0.00000347       -47.1558602262  3.01E-06
   110 Broy./Diag. 0.10E+00    7.8     0.00000090       -47.1558701033 -9.88E-06
   111 Broy./Diag. 0.10E+00    6.3     0.00000651       -47.1558677966  2.31E-06
   112 Broy./Diag. 0.10E+00    7.6     0.00000172       -47.1558382235  2.96E-05
   113 Broy./Diag. 0.10E+00    6.9     0.00000114       -47.1558297619  8.46E-06
   114 Broy./Diag. 0.10E+00    7.4     0.00000144       -47.1558245033  5.26E-06
   115 Broy./Diag. 0.10E+00    7.2     0.00000100       -47.1558312270 -6.72E-06
   116 Broy./Diag. 0.10E+00    7.1     0.00000536       -47.1558342050 -2.98E-06
   117 Broy./Diag. 0.10E+00    7.3     0.00000516       -47.1558475452 -1.33E-05
   118 Broy./Diag. 0.10E+00    7.0     0.00000528       -47.1558439580  3.59E-06
   119 Broy./Diag. 0.10E+00    7.5     0.00000294       -47.1558409887  2.97E-06
   120 Broy./Diag. 0.10E+00    6.5     0.00000353       -47.1558397254  1.26E-06
   121 Broy./Diag. 0.10E+00    7.7     0.00000113       -47.1558442558 -4.53E-06
   122 Broy./Diag. 0.10E+00    6.2     0.00000057       -47.1558446969 -4.41E-07
   123 Broy./Diag. 0.10E+00    7.7     0.00000047       -47.1558455177 -8.21E-07
   124 Broy./Diag. 0.10E+00    6.4     0.00000062       -47.1558499431 -4.43E-06
   125 Broy./Diag. 0.10E+00    7.7     0.00000096       -47.1558475335  2.41E-06
   126 Broy./Diag. 0.10E+00    6.6     0.00000048       -47.1558481525 -6.19E-07
   127 Broy./Diag. 0.10E+00    7.4     0.00000171       -47.1558467988  1.35E-06
   128 Broy./Diag. 0.10E+00    7.0     0.00000039       -47.1558399989  6.80E-06
   129 Broy./Diag. 0.10E+00    7.3     0.00000067       -47.1558374134  2.59E-06
   130 Broy./Diag. 0.10E+00    7.4     0.00000416       -47.1558316818  5.73E-06
   131 Broy./Diag. 0.10E+00    7.1     0.00000194       -47.1558381973 -6.52E-06
   132 Broy./Diag. 0.10E+00    7.7     0.00000078       -47.1558350811  3.12E-06
   133 Broy./Diag. 0.10E+00    6.5     0.00000032       -47.1558374325 -2.35E-06
   134 Broy./Diag. 0.10E+00    7.4     0.00000151       -47.1558389431 -1.51E-06
   135 Broy./Diag. 0.10E+00    6.4     0.00000067       -47.1558330487  5.89E-06
   136 Broy./Diag. 0.10E+00    7.5     0.00000102       -47.1558215263  1.15E-05
   137 Broy./Diag. 0.10E+00    6.1     0.00000147       -47.1558216435 -1.17E-07
   138 Broy./Diag. 0.10E+00    7.6     0.00000143       -47.1558225433 -9.00E-07
   139 Broy./Diag. 0.10E+00    6.1     0.00000566       -47.1558247441 -2.20E-06
   140 Broy./Diag. 0.10E+00    7.7     0.00000427       -47.1558329008 -8.16E-06
   141 Broy./Diag. 0.10E+00    6.3     0.00000063       -47.1558298232  3.08E-06
   142 Broy./Diag. 0.10E+00    7.7     0.00000301       -47.1558253851  4.44E-06
   143 Broy./Diag. 0.10E+00    6.9     0.00000330       -47.1558276704 -2.29E-06
   144 Broy./Diag. 0.10E+00    7.3     0.00000156       -47.1558324227 -4.75E-06
   145 Broy./Diag. 0.10E+00    7.1     0.00000432       -47.1558334119 -9.89E-07
   146 Broy./Diag. 0.10E+00    7.2     0.00000106       -47.1558359771 -2.57E-06
   147 Broy./Diag. 0.10E+00    7.4     0.00000097       -47.1558361778 -2.01E-07
   148 Broy./Diag. 0.10E+00    7.0     0.00000102       -47.1558383933 -2.22E-06
   149 Broy./Diag. 0.10E+00    7.6     0.00000069       -47.1558405305 -2.14E-06
   150 Broy./Diag. 0.10E+00    6.5     0.00000125       -47.1558383945  2.14E-06
   151 Broy./Diag. 0.10E+00    7.6     0.00000090       -47.1558326387  5.76E-06
   152 Broy./Diag. 0.10E+00    6.4     0.00000191       -47.1558298658  2.77E-06
   153 Broy./Diag. 0.10E+00    7.6     0.00000097       -47.1558281695  1.70E-06
   154 Broy./Diag. 0.10E+00    6.2     0.00000039       -47.1558265635  1.61E-06
   155 Broy./Diag. 0.10E+00    7.7     0.00000107       -47.1558245826  1.98E-06
   156 Broy./Diag. 0.10E+00    6.4     0.00000074       -47.1558216870  2.90E-06
   157 Broy./Diag. 0.10E+00    7.7     0.00000507       -47.1558196809  2.01E-06
   158 Broy./Diag. 0.10E+00    6.9     0.00000341       -47.1558151036  4.58E-06
   159 Broy./Diag. 0.10E+00    7.4     0.00000137       -47.1558071886  7.91E-06
   160 Broy./Diag. 0.10E+00    7.1     0.00000112       -47.1558073163 -1.28E-07
   161 Broy./Diag. 0.10E+00    7.2     0.00000426       -47.1558093546 -2.04E-06
   162 Broy./Diag. 0.10E+00    7.3     0.00000127       -47.1558218628 -1.25E-05
   163 Broy./Diag. 0.10E+00    6.9     0.00000364       -47.1558197564  2.11E-06
   164 Broy./Diag. 0.10E+00    7.5     0.00000213       -47.1558076584  1.21E-05
   165 Broy./Diag. 0.10E+00    6.4     0.00000036       -47.1557996059  8.05E-06
   166 Broy./Diag. 0.10E+00    7.6     0.00000038       -47.1558001303 -5.24E-07
   167 Broy./Diag. 0.10E+00    6.4     0.00000085       -47.1558022999 -2.17E-06
   168 Broy./Diag. 0.10E+00    7.5     0.00000060       -47.1558045538 -2.25E-06
   169 Broy./Diag. 0.10E+00    6.2     0.00000027       -47.1558050174 -4.64E-07

  *** SCF run converged in   169 steps ***


  Electronic density on regular grids:         -8.9999571267        0.0000428733
  Core density on regular grids:                9.0000000000       -0.0000000000
  Total charge density on r-space grids:        0.0000428733
  Total charge density g-space grids:           0.0000428733

  Overlap energy of the core charge distribution:               0.00000000000000
  Self energy of the core charge distribution:                -96.60649019442629
  Core Hamiltonian energy:                                     29.74232377292417
  Hartree energy:                                              26.75239434472343
  Exchange-correlation energy:                                 -7.04403163454369
  Dispersion energy:                                           -0.00000130538029
  Electronic entropic energy:                                  -0.00000000073541
  Fermi energy:                                                -0.08485686244991

  Total energy:                                               -47.15580501743467

  outer SCF iter =    1 RMS gradient =   0.27E-06 energy =        -47.1558050174
  outer SCF loop converged in   1 iterations or  169 steps


  Integrated absolute spin density  :                               1.0000162950
  WARNING: S**2 computation does not yet treat fractional occupied orbitals

 *** WARNING in qs_loc_utils.F:1387 :: User requested the calculation of ***
 *** the localized wavefunction but the section LOCALIZE was not         ***
 *** specified. Localization will not be performed!                      ***


 -------------------------------------------------------------------------------
 -                                                                             -
 -  BSSE CALCULATION         FRAGMENT CONF: 11        FRAGMENT SUBCONF: 11     -
 -                           CHARGE =     0           MULTIPLICITY =     0     -
 -                                                                             -
 -                 ATOM INDEX                              ATOM NAME           -
 -                 ----------                              ---------           -
 -                      1                                   C                  -
 -                      2                                   C                  -
 -                      3                                   C                  -
 -                      4                                   C                  -
 -                      5                                   C                  -
 -                      6                                   C                  -
 -                      7                                   C                  -
 -                      8                                   C                  -
 -                      9                                   C                  -
 -                     10                                   C                  -
 -                     11                                   C                  -
 -                     12                                   C                  -
 -                     13                                   C                  -
 -                     14                                   C                  -
 -                     15                                   C                  -
 -                     16                                   C                  -
 -                     17                                   C                  -
 -                     18                                   C                  -
 -                     19                                   C                  -
 -                     20                                   C                  -
 -                     21                                   C                  -
 -                     22                                   C                  -
 -                     23                                   C                  -
 -                     24                                   C                  -
 -                     25                                   C                  -
 -                     26                                   C                  -
 -                     27                                   C                  -
 -                     28                                   C                  -
 -                     29                                   C                  -
 -                     30                                   C                  -
 -                     31                                   C                  -
 -                     32                                   C                  -
 -                     33                                   C                  -
 -                     34                                   C                  -
 -                     35                                   C                  -
 -                     36                                   C                  -
 -                     37                                   C                  -
 -                     38                                   C                  -
 -                     39                                   C                  -
 -                     40                                   C                  -
 -                     41                                   C                  -
 -                     42                                   C                  -
 -                     43                                   C                  -
 -                     44                                   C                  -
 -                     45                                   C                  -
 -                     46                                   C                  -
 -                     47                                   C                  -
 -                     48                                   C                  -
 -                     49                                   C                  -
 -                     50                                   C                  -
 -                     51                                   C                  -
 -                     52                                   C                  -
 -                     53                                   C                  -
 -                     54                                   C                  -
 -                     55                                   C                  -
 -                     56                                   C                  -
 -                     57                                   C                  -
 -                     58                                   C                  -
 -                     59                                   C                  -
 -                     60                                   C                  -
 -                     61                                   C                  -
 -                     62                                   C                  -
 -                     63                                   C                  -
 -                     64                                   C                  -
 -                     65                                   C                  -
[...]
    73 Broy./Diag. 0.10E+00    5.1     0.00017482      -679.7776238523 -1.82E-04
    74 Broy./Diag. 0.10E+00    5.5     0.00020000      -679.7775001643  1.24E-04
    75 Broy./Diag. 0.10E+00    5.3     0.00012327      -679.7774681557  3.20E-05
    76 Broy./Diag. 0.10E+00    5.4     0.00012981      -679.7774982520 -3.01E-05
    77 Broy./Diag. 0.10E+00    5.6     0.00005803      -679.7775061522 -7.90E-06
    78 Broy./Diag. 0.10E+00    4.9     0.00011011      -679.7774654617  4.07E-05
    79 Broy./Diag. 0.10E+00    5.7     0.00010866      -679.7775852664 -1.20E-04
    80 Broy./Diag. 0.10E+00    4.8     0.00017382      -679.7776589316 -7.37E-05
    81 Broy./Diag. 0.10E+00    5.6     0.00026642      -679.7775147715  1.44E-04
    82 Broy./Diag. 0.10E+00    4.9     0.00024177      -679.7776078899 -9.31E-05
    83 Broy./Diag. 0.10E+00    5.5     0.00021572      -679.7775168295  9.11E-05
    84 Broy./Diag. 0.10E+00    4.9     0.00019485      -679.7775345042 -1.77E-05
    85 Broy./Diag. 0.10E+00    5.3     0.00018474      -679.7777174587 -1.83E-04
    86 Broy./Diag. 0.10E+00    5.3     0.00013295      -679.7776238474  9.36E-05
    87 Broy./Diag. 0.10E+00    5.3     0.00014416      -679.7776504950 -2.66E-05
    88 Broy./Diag. 0.10E+00    5.7     0.00011432      -679.7775619426  8.86E-05
    89 Broy./Diag. 0.10E+00    4.9     0.00030148      -679.7775299260  3.20E-05
    90 Broy./Diag. 0.10E+00    5.8     0.00023158      -679.7776656567 -1.36E-04
    91 Broy./Diag. 0.10E+00    4.8     0.00014644      -679.7774983449  1.67E-04
    92 Broy./Diag. 0.10E+00    5.7     0.00037131      -679.7775526695 -5.43E-05
    93 Broy./Diag. 0.10E+00    5.0     0.00022679      -679.7773544862  1.98E-04
    94 Broy./Diag. 0.10E+00    5.3     0.00030969      -679.7775354934 -1.81E-04
    95 Broy./Diag. 0.10E+00    5.3     0.00007831      -679.7773288163  2.07E-04
    96 Broy./Diag. 0.10E+00    5.4     0.00007391      -679.7773872435 -5.84E-05
    97 Broy./Diag. 0.10E+00    5.7     0.00007313      -679.7773577284  2.95E-05
    98 Broy./Diag. 0.10E+00    4.9     0.00009848      -679.7773035392  5.42E-05
    99 Broy./Diag. 0.10E+00    5.8     0.00021780      -679.7773499254 -4.64E-05
   100 Broy./Diag. 0.10E+00    4.8     0.00011135      -679.7774431852 -9.33E-05
   101 Broy./Diag. 0.10E+00    5.6     0.00043008      -679.7772898269  1.53E-04
   102 Broy./Diag. 0.10E+00    5.0     0.00041619      -679.7774523293 -1.63E-04
   103 Broy./Diag. 0.10E+00    5.4     0.00021109      -679.7779435256 -4.91E-04
   104 Broy./Diag. 0.10E+00    5.3     0.00026039      -679.7778780064  6.55E-05
   105 Broy./Diag. 0.10E+00    5.3     0.00032814      -679.7777682948  1.10E-04
   106 Broy./Diag. 0.10E+00    5.7     0.00031731      -679.7779730314 -2.05E-04
   107 Broy./Diag. 0.10E+00    4.9     0.00014360      -679.7775442387  4.29E-04
   108 Broy./Diag. 0.10E+00    5.7     0.00035021      -679.7775647471 -2.05E-05
   109 Broy./Diag. 0.10E+00    4.9     0.00030442      -679.7777111396 -1.46E-04
   110 Broy./Diag. 0.10E+00    5.8     0.00010271      -679.7777552394 -4.41E-05
   111 Broy./Diag. 0.10E+00    5.1     0.00027890      -679.7777080223  4.72E-05
   112 Broy./Diag. 0.10E+00    5.4     0.00041211      -679.7776306970  7.73E-05
   113 Broy./Diag. 0.10E+00    5.4     0.00017004      -679.7772250555  4.06E-04
   114 Broy./Diag. 0.10E+00    5.3     0.00014341      -679.7770018783  2.23E-04
   115 Broy./Diag. 0.10E+00    5.7     0.00030221      -679.7771351036 -1.33E-04
   116 Broy./Diag. 0.10E+00    4.9     0.00017151      -679.7769503302  1.85E-04
   117 Broy./Diag. 0.10E+00    5.8     0.00004850      -679.7769905949 -4.03E-05
   118 Broy./Diag. 0.10E+00    4.8     0.00009005      -679.7769672186  2.34E-05
   119 Broy./Diag. 0.10E+00    5.7     0.00019399      -679.7768748539  9.24E-05
   120 Broy./Diag. 0.10E+00    5.1     0.00023816      -679.7770686005 -1.94E-04
   121 Broy./Diag. 0.10E+00    5.4     0.00006545      -679.7767775156  2.91E-04
   122 Broy./Diag. 0.10E+00    5.3     0.00014942      -679.7768132629 -3.57E-05
   123 Broy./Diag. 0.10E+00    5.2     0.00003883      -679.7767547640  5.85E-05
   124 Broy./Diag. 0.10E+00    5.8     0.00014941      -679.7767171597  3.76E-05
   125 Broy./Diag. 0.10E+00    4.9     0.00014908      -679.7766822103  3.49E-05
   126 Broy./Diag. 0.10E+00    5.8     0.00031583      -679.7768069216 -1.25E-04
   127 Broy./Diag. 0.10E+00    4.7     0.00009916      -679.7765398134  2.67E-04
   128 Broy./Diag. 0.10E+00    5.6     0.00006959      -679.7764841574  5.57E-05
   129 Broy./Diag. 0.10E+00    5.3     0.00013054      -679.7764617410  2.24E-05
   130 Broy./Diag. 0.10E+00    5.5     0.00007870      -679.7764714847 -9.74E-06
   131 Broy./Diag. 0.10E+00    5.6     0.00030011      -679.7765271473 -5.57E-05
   132 Broy./Diag. 0.10E+00    5.0     0.00017851      -679.7767771225 -2.50E-04
   133 Broy./Diag. 0.10E+00    5.9     0.00006990      -679.7767879009 -1.08E-05
   134 Broy./Diag. 0.10E+00    4.7     0.00005467      -679.7767083497  7.96E-05
   135 Broy./Diag. 0.10E+00    5.8     0.00014349      -679.7767892207 -8.09E-05
   136 Broy./Diag. 0.10E+00    4.7     0.00007981      -679.7769270424 -1.38E-04
   137 Broy./Diag. 0.10E+00    5.6     0.00016122      -679.7768757629  5.13E-05
   138 Broy./Diag. 0.10E+00    5.2     0.00017301      -679.7769879954 -1.12E-04
   139 Broy./Diag. 0.10E+00    5.6     0.00011326      -679.7767919019  1.96E-04
   140 Broy./Diag. 0.10E+00    5.5     0.00010469      -679.7768037138 -1.18E-05
   141 Broy./Diag. 0.10E+00    5.1     0.00016544      -679.7766869290  1.17E-04
   142 Broy./Diag. 0.10E+00    5.7     0.00030047      -679.7768692045 -1.82E-04
   143 Broy./Diag. 0.10E+00    4.9     0.00019014      -679.7766482641  2.21E-04
   144 Broy./Diag. 0.10E+00    5.7     0.00019007      -679.7768021394 -1.54E-04
   145 Broy./Diag. 0.10E+00    5.4     0.00013520      -679.7767117345  9.04E-05
   146 Broy./Diag. 0.10E+00    5.5     0.00014043      -679.7767711102 -5.94E-05
   147 Broy./Diag. 0.10E+00    5.3     0.00012561      -679.7767657366  5.37E-06
   148 Broy./Diag. 0.10E+00    5.3     0.00025561      -679.7768688351 -1.03E-04
   149 Broy./Diag. 0.10E+00    5.8     0.00010264      -679.7766713639  1.97E-04
   150 Broy./Diag. 0.10E+00    4.9     0.00004111      -679.7767069335 -3.56E-05
   151 Broy./Diag. 0.10E+00    5.8     0.00008013      -679.7767228155 -1.59E-05
   152 Broy./Diag. 0.10E+00    5.7     0.00007214      -679.7767747109 -5.19E-05
   153 Broy./Diag. 0.10E+00    5.7     0.00009900      -679.7767678895  6.82E-06
   154 Broy./Diag. 0.10E+00    5.5     0.00015488      -679.7766922414  7.56E-05
   155 Broy./Diag. 0.10E+00    5.0     0.00013684      -679.7768547816 -1.63E-04
   156 Broy./Diag. 0.10E+00    5.8     0.00015060      -679.7766748902  1.80E-04
   157 Broy./Diag. 0.10E+00    4.8     0.00025278      -679.7767039962 -2.91E-05
   158 Broy./Diag. 0.10E+00    5.8     0.00026053      -679.7769510367 -2.47E-04
   159 Broy./Diag. 0.10E+00    5.1     0.00023089      -679.7770912271 -1.40E-04
   160 Broy./Diag. 0.10E+00    5.5     0.00006999      -679.7771142226 -2.30E-05
   161 Broy./Diag. 0.10E+00    5.2     0.00011543      -679.7770578186  5.64E-05
   162 Broy./Diag. 0.10E+00    5.4     0.00009842      -679.7769734311  8.44E-05
   163 Broy./Diag. 0.10E+00    5.6     0.00006680      -679.7770399262 -6.65E-05
   164 Broy./Diag. 0.10E+00    5.1     0.00004607      -679.7769703820  6.95E-05
   165 Broy./Diag. 0.10E+00    7.1     0.00005549      -679.7769674850  2.90E-06
   166 Broy./Diag. 0.10E+00    6.3     0.00008852      -679.7769219259  4.56E-05
   167 Broy./Diag. 0.10E+00    7.3     0.00008095      -679.7770038851 -8.20E-05
   168 Broy./Diag. 0.10E+00    6.5     0.00029825      -679.7769923118  1.16E-05
   169 Broy./Diag. 0.10E+00    7.5     0.00029456      -679.7772115576 -2.19E-04
   170 Broy./Diag. 0.10E+00    6.6     0.00011645      -679.7769654219  2.46E-04
   171 Broy./Diag. 0.10E+00    7.1     0.00006877      -679.7770191115 -5.37E-05
   172 Broy./Diag. 0.10E+00    6.7     0.00008039      -679.7769610336  5.81E-05
   173 Broy./Diag. 0.10E+00    7.5     0.00008986      -679.7769557680  5.27E-06
   174 Broy./Diag. 0.10E+00    7.2     0.00015450      -679.7770104326 -5.47E-05
   175 Broy./Diag. 0.10E+00    7.2     0.00010423      -679.7771623442 -1.52E-04
   176 Broy./Diag. 0.10E+00    7.3     0.00012390      -679.7771407204  2.16E-05
   177 Broy./Diag. 0.10E+00    6.9     0.00018697      -679.7770681349  7.26E-05
   178 Broy./Diag. 0.10E+00    7.4     0.00030138      -679.7771824312 -1.14E-04
   179 Broy./Diag. 0.10E+00    6.8     0.00008365      -679.7777206157 -5.38E-04
   180 Broy./Diag. 0.10E+00    7.8     0.00011229      -679.7777072414  1.34E-05
   181 Broy./Diag. 0.10E+00    6.6     0.00015589      -679.7776761491  3.11E-05
   182 Broy./Diag. 0.10E+00    7.6     0.00008987      -679.7777309618 -5.48E-05
   183 Broy./Diag. 0.10E+00    6.8     0.00017901      -679.7778393568 -1.08E-04
   184 Broy./Diag. 0.10E+00    7.7     0.00005017      -679.7776057378  2.34E-04
   185 Broy./Diag. 0.10E+00    7.5     0.00006437      -679.7776838876 -7.81E-05
   186 Broy./Diag. 0.10E+00    7.3     0.00001051      -679.7776246966  5.92E-05
   187 Broy./Diag. 0.10E+00    7.4     0.00007686      -679.7776204795  4.22E-06
   188 Broy./Diag. 0.10E+00    6.8     0.00002595      -679.7776689862 -4.85E-05
   189 Broy./Diag. 0.10E+00    8.0     0.00005514      -679.7776500331  1.90E-05
   190 Broy./Diag. 0.10E+00    7.2     0.00008006      -679.7776982143 -4.82E-05
   191 Broy./Diag. 0.10E+00    7.5     0.00005141      -679.7776056642  9.26E-05
   192 Broy./Diag. 0.10E+00    6.8     0.00007446      -679.7776651536 -5.95E-05
   193 Broy./Diag. 0.10E+00    7.3     0.00007946      -679.7777407266 -7.56E-05
   194 Broy./Diag. 0.10E+00    6.8     0.00014040      -679.7776650573  7.57E-05
   195 Broy./Diag. 0.10E+00    7.3     0.00013955      -679.7776733682 -8.31E-06
   196 Broy./Diag. 0.10E+00    6.8     0.00016503      -679.7777700254 -9.67E-05
   197 Broy./Diag. 0.10E+00    6.8     0.00005285      -679.7776664950  1.04E-04
   198 Broy./Diag. 0.10E+00    6.5     0.00009015      -679.7775489975  1.17E-04
   199 Broy./Diag. 0.10E+00    6.7     0.00013581      -679.7773880268  1.61E-04
   200 Broy./Diag. 0.10E+00    6.1     0.00006672      -679.7773341937  5.38E-05
   201 Broy./Diag. 0.10E+00    6.7     0.00007355      -679.7772598133  7.44E-05
   202 Broy./Diag. 0.10E+00    6.8     0.00004670      -679.7772345787  2.52E-05
   203 Broy./Diag. 0.10E+00    6.7     0.00005822      -679.7772422398 -7.66E-06
   204 Broy./Diag. 0.10E+00    6.6     0.00007212      -679.7771876867  5.46E-05
   205 Broy./Diag. 0.10E+00    6.4     0.00002953      -679.7772215560 -3.39E-05
   206 Broy./Diag. 0.10E+00    7.1     0.00005614      -679.7772920727 -7.05E-05
   207 Broy./Diag. 0.10E+00    7.1     0.00005114      -679.7772517986  4.03E-05
   208 Broy./Diag. 0.10E+00    7.1     0.00006208      -679.7771535307  9.83E-05
   209 Broy./Diag. 0.10E+00    7.2     0.00006457      -679.7772117202 -5.82E-05
   210 Broy./Diag. 0.10E+00    6.9     0.00004325      -679.7771410453  7.07E-05
   211 Broy./Diag. 0.10E+00    7.5     0.00003593      -679.7771024462  3.86E-05
   212 Broy./Diag. 0.10E+00    6.7     0.00004528      -679.7771127089 -1.03E-05
   213 Broy./Diag. 0.10E+00    7.7     0.00011206      -679.7771151092 -2.40E-06
   214 Broy./Diag. 0.10E+00    6.8     0.00010585      -679.7772421695 -1.27E-04
   215 Broy./Diag. 0.10E+00    7.7     0.00007255      -679.7771425697  9.96E-05
   216 Broy./Diag. 0.10E+00    6.7     0.00010953      -679.7772539325 -1.11E-04
   217 Broy./Diag. 0.10E+00    7.6     0.00006701      -679.7771526759  1.01E-04
   218 Broy./Diag. 0.10E+00    7.1     0.00006110      -679.7771898553 -3.72E-05
   219 Broy./Diag. 0.10E+00    7.3     0.00003350      -679.7772065954 -1.67E-05
   220 Broy./Diag. 0.10E+00    6.9     0.00004392      -679.7772279557 -2.14E-05
   221 Broy./Diag. 0.10E+00    7.2     0.00007235      -679.7772636573 -3.57E-05
   222 Broy./Diag. 0.10E+00    7.1     0.00006506      -679.7771895507  7.41E-05
   223 Broy./Diag. 0.10E+00    6.8     0.00004661      -679.7772878922 -9.83E-05
   224 Broy./Diag. 0.10E+00    7.4     0.00006597      -679.7772571205  3.08E-05
   225 Broy./Diag. 0.10E+00    6.4     0.00004837      -679.7773436163 -8.65E-05
   226 Broy./Diag. 0.10E+00    7.2     0.00003377      -679.7773052273  3.84E-05
   227 Broy./Diag. 0.10E+00    6.2     0.00004600      -679.7772806433  2.46E-05
   228 Broy./Diag. 0.10E+00    7.2     0.00013841      -679.7772731838  7.46E-06
   229 Broy./Diag. 0.10E+00    6.5     0.00012887      -679.7774182673 -1.45E-04
   230 Broy./Diag. 0.10E+00    7.3     0.00008318      -679.7773378106  8.05E-05
   231 Broy./Diag. 0.10E+00    6.4     0.00012914      -679.7772946558  4.32E-05
   232 Broy./Diag. 0.10E+00    7.3     0.00004162      -679.7773507648 -5.61E-05
   233 Broy./Diag. 0.10E+00    6.3     0.00010643      -679.7773525704 -1.81E-06
   234 Broy./Diag. 0.10E+00    7.3     0.00004696      -679.7774217200 -6.91E-05
   235 Broy./Diag. 0.10E+00    6.3     0.00006123      -679.7774423813 -2.07E-05
   236 Broy./Diag. 0.10E+00    7.5     0.00013666      -679.7775459359 -1.04E-04
   237 Broy./Diag. 0.10E+00    6.3     0.00006604      -679.7774248993  1.21E-04
   238 Broy./Diag. 0.10E+00    7.8     0.00009363      -679.7774129769  1.19E-05
   239 Broy./Diag. 0.10E+00    6.5     0.00013053      -679.7774329599 -2.00E-05
   240 Broy./Diag. 0.10E+00    7.6     0.00012175      -679.7773611650  7.18E-05
   241 Broy./Diag. 0.10E+00    6.8     0.00010434      -679.7775227178 -1.62E-04
   242 Broy./Diag. 0.10E+00    7.3     0.00007557      -679.7774045441  1.18E-04
   243 Broy./Diag. 0.10E+00    7.1     0.00009601      -679.7774085585 -4.01E-06
   244 Broy./Diag. 0.10E+00    7.3     0.00009268      -679.7774339919 -2.54E-05
   245 Broy./Diag. 0.10E+00    7.2     0.00015594      -679.7774562460 -2.23E-05
   246 Broy./Diag. 0.10E+00    7.1     0.00008408      -679.7773374028  1.19E-04
   247 Broy./Diag. 0.10E+00    7.7     0.00008237      -679.7774465649 -1.09E-04
   248 Broy./Diag. 0.10E+00    7.0     0.00007347      -679.7773867009  5.99E-05
   249 Broy./Diag. 0.10E+00    7.7     0.00002909      -679.7773315320  5.52E-05
   250 Broy./Diag. 0.10E+00    6.7     0.00005411      -679.7773464254 -1.49E-05
   251 Broy./Diag. 0.10E+00    7.4     0.00006688      -679.7773309116  1.55E-05
   252 Broy./Diag. 0.10E+00    6.5     0.00006742      -679.7773332433 -2.33E-06
   253 Broy./Diag. 0.10E+00    6.8     0.00010284      -679.7774163515 -8.31E-05
   254 Broy./Diag. 0.10E+00    6.3     0.00004858      -679.7772759212  1.40E-04
   255 Broy./Diag. 0.10E+00    6.9     0.00003019      -679.7773521176 -7.62E-05
   256 Broy./Diag. 0.10E+00    6.2     0.00005763      -679.7773355859  1.65E-05
   257 Broy./Diag. 0.10E+00    7.4     0.00004143      -679.7773979786 -6.24E-05
   258 Broy./Diag. 0.10E+00    6.6     0.00012293      -679.7774447143 -4.67E-05
   259 Broy./Diag. 0.10E+00    6.7     0.00002161      -679.7774519627 -7.25E-06
   260 Broy./Diag. 0.10E+00    6.5     0.00007103      -679.7774687024 -1.67E-05
   261 Broy./Diag. 0.10E+00    6.8     0.00003300      -679.7775137878 -4.51E-05
   262 Broy./Diag. 0.10E+00    6.3     0.00003007      -679.7774846311  2.92E-05
   263 Broy./Diag. 0.10E+00    6.6     0.00006946      -679.7775179085 -3.33E-05
   264 Broy./Diag. 0.10E+00    6.5     0.00006322      -679.7774371450  8.08E-05
   265 Broy./Diag. 0.10E+00    7.0     0.00004210      -679.7775259350 -8.88E-05
   266 Broy./Diag. 0.10E+00    6.9     0.00003181      -679.7775932291 -6.73E-05
   267 Broy./Diag. 0.10E+00    7.2     0.00012929      -679.7774985387  9.47E-05
   268 Broy./Diag. 0.10E+00    7.2     0.00003940      -679.7775451816 -4.66E-05
   269 Broy./Diag. 0.10E+00    7.2     0.00009336      -679.7776102308 -6.50E-05
   270 Broy./Diag. 0.10E+00    7.4     0.00010860      -679.7775456310  6.46E-05
   271 Broy./Diag. 0.10E+00    6.8     0.00007997      -679.7776589617 -1.13E-04
   272 Broy./Diag. 0.10E+00    7.5     0.00009655      -679.7776533201  5.64E-06
   273 Broy./Diag. 0.10E+00    6.6     0.00010224      -679.7777626588 -1.09E-04
   274 Broy./Diag. 0.10E+00    7.6     0.00014234      -679.7776609931  1.02E-04
   275 Broy./Diag. 0.10E+00    6.7     0.00009387      -679.7778092697 -1.48E-04
   276 Broy./Diag. 0.10E+00    7.4     0.00014076      -679.7777700389  3.92E-05
   277 Broy./Diag. 0.10E+00    6.6     0.00006592      -679.7778490457 -7.90E-05
   278 Broy./Diag. 0.10E+00    7.1     0.00008396      -679.7777921139  5.69E-05
   279 Broy./Diag. 0.10E+00    6.3     0.00007446      -679.7778396336 -4.75E-05
   280 Broy./Diag. 0.10E+00    6.9     0.00019897      -679.7777816690  5.80E-05
   281 Broy./Diag. 0.10E+00    6.2     0.00014026      -679.7778135529 -3.19E-05
   282 Broy./Diag. 0.10E+00    6.9     0.00030345      -679.7778263091 -1.28E-05
   283 Broy./Diag. 0.10E+00    6.3     0.00007551      -679.7778579505 -3.16E-05
   284 Broy./Diag. 0.10E+00    7.2     0.00012885      -679.7779235615 -6.56E-05
   285 Broy./Diag. 0.10E+00    6.6     0.00009128      -679.7781343182 -2.11E-04
   286 Broy./Diag. 0.10E+00    7.3     0.00008787      -679.7782190521 -8.47E-05
   287 Broy./Diag. 0.10E+00    7.0     0.00018799      -679.7781680221  5.10E-05
   288 Broy./Diag. 0.10E+00    7.2     0.00005368      -679.7781996788 -3.17E-05
   289 Broy./Diag. 0.10E+00    7.3     0.00010324      -679.7782714920 -7.18E-05
   290 Broy./Diag. 0.10E+00    7.2     0.00008089      -679.7782931181 -2.16E-05
   291 Broy./Diag. 0.10E+00    7.5     0.00012061      -679.7783730019 -7.99E-05
   292 Broy./Diag. 0.10E+00    7.0     0.00005059      -679.7783080453  6.50E-05
   293 Broy./Diag. 0.10E+00    7.5     0.00008671      -679.7781833689  1.25E-04
   294 Broy./Diag. 0.10E+00    6.7     0.00012341      -679.7780256252  1.58E-04
   295 Broy./Diag. 0.10E+00    7.6     0.00004424      -679.7781457271 -1.20E-04
   296 Broy./Diag. 0.10E+00    6.2     0.00011530      -679.7779649271  1.81E-04
   297 Broy./Diag. 0.10E+00    7.3     0.00014467      -679.7776156877  3.49E-04
   298 Broy./Diag. 0.10E+00    5.8     0.00014264      -679.7773562915  2.59E-04
   299 Broy./Diag. 0.10E+00    7.1     0.00005123      -679.7774596810 -1.03E-04
   300 Broy./Diag. 0.10E+00    6.2     0.00009016      -679.7772653829  1.94E-04
   301 Broy./Diag. 0.10E+00    7.2     0.00005301      -679.7769737963  2.92E-04
   302 Broy./Diag. 0.10E+00    6.1     0.00003648      -679.7768386138  1.35E-04
   303 Broy./Diag. 0.10E+00    7.1     0.00003822      -679.7767623173  7.63E-05
   304 Broy./Diag. 0.10E+00    6.2     0.00009129      -679.7767155816  4.67E-05
   305 Broy./Diag. 0.10E+00    7.7     0.00020492      -679.7766403546  7.52E-05
   306 Broy./Diag. 0.10E+00    6.6     0.00003075      -679.7767332985 -9.29E-05
   307 Broy./Diag. 0.10E+00    7.4     0.00003884      -679.7766955915  3.77E-05
   308 Broy./Diag. 0.10E+00    7.3     0.00005750      -679.7766990442 -3.45E-06
   309 Broy./Diag. 0.10E+00    7.6     0.00004479      -679.7767009217 -1.88E-06
   310 Broy./Diag. 0.10E+00    7.3     0.00011556      -679.7767371763 -3.63E-05
   311 Broy./Diag. 0.10E+00    7.3     0.00012203      -679.7768187112 -8.15E-05
   312 Broy./Diag. 0.10E+00    7.5     0.00009333      -679.7767663025  5.24E-05
   313 Broy./Diag. 0.10E+00    6.8     0.00022522      -679.7768475457 -8.12E-05
   314 Broy./Diag. 0.10E+00    7.6     0.00008898      -679.7769778092 -1.30E-04
   315 Broy./Diag. 0.10E+00    6.5     0.00028082      -679.7769409164  3.69E-05
-------------------------------------------------------
Primary job  terminated normally, but 1 process returned
a non-zero exit code. Per user-direction, the job has been aborted.
-------------------------------------------------------
