 DBCSR| CPU Multiplication driver                                           BLAS (U)
 DBCSR| Multrec recursion limit                                              512 (U)
 DBCSR| Multiplication stack size                                           1000 (D)
 DBCSR| Maximum elements for images                                    UNLIMITED (U)
 DBCSR| Multiplicative factor virtual images                                   1 (U)
 DBCSR| Use multiplication densification                                       T (D)
 DBCSR| Multiplication size stacks                                             3 (U)
 DBCSR| Use memory pool for CPU allocation                                     F (U)
 DBCSR| Number of 3D layers                                               SINGLE (U)
 DBCSR| Use MPI memory allocation                                              F (U)
 DBCSR| Use RMA algorithm                                                      F (U)
 DBCSR| Use Communication thread                                               T (U)
 DBCSR| Communication thread load                                             87 (D)
 DBCSR| MPI: My process id                                                     0
 DBCSR| MPI: Number of processes                                              16
 DBCSR| OMP: Current number of threads                                         1
 DBCSR| OMP: Max number of threads                                             1
 DBCSR| Split modifier for TAS multiplication algorithm                  1.0E+00 (U)


  **** **** ******  **  PROGRAM STARTED AT               2025-06-03 16:14:14.743
 ***** ** ***  *** **   PROGRAM STARTED ON                            sebnode133
 **    ****   ******    PROGRAM STARTED BY                                luehrs
 ***** **    ** ** **   PROGRAM PROCESS ID                               1748241
  **** **  *******  **  PROGRAM STARTED IN /home/luehrs/PhD/Sodium_batteries/Sod
                                           ium-graphene-edge/Zig_zag_3/No_hydrog
                                           en

 CP2K| version string:                                       CP2K version 2023.1
 CP2K| source code revision number:                                  git:b888bd8
 CP2K| cp2kflags: omp libint fftw3 libxc elpa parallel scalapack spglib         
 CP2K| is freely available from                            https://www.cp2k.org/
 CP2K| Program compiled at                          Tue Jan 10 19:52:03 UTC 2023
 CP2K| Program compiled on                                            x86-ubc-01
 CP2K| Program compiled for                                Linux-x86_64-gfortran
 CP2K| Data directory path                                       /usr/share/cp2k
 CP2K| Input file name                                         input.zig-zag.inp

 GLOBAL| Force Environment number                                              1
 GLOBAL| Basis set file name                                      ./BASIS_MOLOPT
 GLOBAL| Potential file name                                    ./GTH_POTENTIALS
 GLOBAL| MM Potential file name                                     MM_POTENTIAL
 GLOBAL| Coordinate file name           graphene_no_hydrogen_zig-zag_relaxed.xyz
 GLOBAL| Method name                                                        CP2K
 GLOBAL| Project name                                  graphene_zig_zag_BSSE_PBE
 GLOBAL| Run type                                                           BSSE
 GLOBAL| FFT library                                                       FFTW3
 GLOBAL| Diagonalization library                                            ELPA
 GLOBAL| DGEMM library                                                      BLAS
 GLOBAL| Minimum number of eigenvectors for ELPA usage                        16
 GLOBAL| Orthonormality check for eigenvectors                          DISABLED
 GLOBAL| Matrix multiplication library                                 ScaLAPACK
 GLOBAL| All-to-all communication in single precision                          F
 GLOBAL| FFTs using library dependent lengths                                  F
 GLOBAL| Grid backend                                                       AUTO
 GLOBAL| Global print level                                                  LOW
 GLOBAL| MPI I/O enabled                                                       T
 GLOBAL| Total number of message passing processes                            16
 GLOBAL| Number of threads for this process                                    1
 GLOBAL| This output is from process                                           0
 GLOBAL| Stack size for threads created by OpenMP (OMP_STACKSIZE)        default
 GLOBAL| CPU model name                          AMD EPYC 7513 32-Core Processor

 MEMORY| system memory details [Kb]
 MEMORY|                        rank 0           min           max       average
 MEMORY| MemTotal            131828104     131828104     131828104     131828104
 MEMORY| MemFree              79248812      79248812      79248812      79248812
 MEMORY| Buffers                194468        194468        194468        194468
 MEMORY| Cached                1415548       1415544       1415548       1415546
 MEMORY| Slab                   847576        847576        847576        847576
 MEMORY| SReclaimable           198812        198812        198812        198812
 MEMORY| MemLikelyFree        81057640      81057636      81057640      81057638


 GENERATE|  Preliminary Number of Bonds generated:                             0
 GENERATE|  Achieved consistency in connectivity generation.

 *******************************************************************************
 *******************************************************************************
 **                                                                           **
 **     #####                         ##              ##                      **
 **    ##   ##            ##          ##              ##                      **
 **   ##     ##                       ##            ######                    **
 **   ##     ##  ##   ##  ##   #####  ##  ##   ####   ##    #####    #####    **
 **   ##     ##  ##   ##  ##  ##      ## ##   ##      ##   ##   ##  ##   ##   **
 **   ##  ## ##  ##   ##  ##  ##      ####     ###    ##   ######   ######    **
 **    ##  ###   ##   ##  ##  ##      ## ##      ##   ##   ##       ##        **
 **     #######   #####   ##   #####  ##  ##  ####    ##    #####   ##        **
 **           ##                                                    ##        **
 **                                                                           **
 **                                                ... make the atoms dance   **
 **                                                                           **
 **            Copyright (C) by CP2K developers group (2000-2022)             **
 **                      J. Chem. Phys. 152, 194103 (2020)                    **
 **                                                                           **
 *******************************************************************************


 TOTAL NUMBERS AND MAXIMUM NUMBERS

  Total number of            - Atomic kinds:                                   2
                             - Atoms:                                        113
                             - Shell sets:                                   113
                             - Shells:                                       565
                             - Primitive Cartesian functions:                567
                             - Cartesian basis functions:                   1577
                             - Spherical basis functions:                   1465

  Maximum angular momentum of- Orbital basis functions:                        2
                             - Local part of the GTH pseudopotential:          2
                             - Non-local part of the GTH pseudopotential:      1


 SCF PARAMETERS         Density guess:                                    ATOMIC
                        --------------------------------------------------------
                        max_scf:                                             400
                        max_scf_history:                                       0
                        max_diis:                                              4
                        --------------------------------------------------------
                        eps_scf:                                        3.00E-07
                        eps_scf_history:                                0.00E+00
                        eps_diis:                                       1.00E-01
                        eps_eigval:                                     1.00E-05
                        --------------------------------------------------------
                        level_shift [a.u.]:                             0.000000
                        added MOs                                       100  100
                        --------------------------------------------------------
                        Mixing method:                            BROYDEN_MIXING
                                                charge density mixing in g-space
                        --------------------------------------------------------
                        Smear method:                                FERMI_DIRAC
                        Electronic temperature [K]:                        300.0
                        Electronic temperature [a.u.]:                  9.50E-04
                        Accuracy threshold:                             1.00E-10
                        --------------------------------------------------------
                        Outer loop SCF in use 
                        No variables optimised in outer loop
                        eps_scf                                         1.00E-06
                        max_scf                                              100
                        DIIS optimization
                        DIIS buffer length                                     3
                        step_size                                       5.00E-01

 -------------------------------------------------------------------------------
 -                                                                             -
 -  BSSE CALCULATION         FRAGMENT CONF: 10        FRAGMENT SUBCONF: 10     -
 -                           CHARGE =     0           MULTIPLICITY =     0     -
 -                                                                             -
 -                 ATOM INDEX                              ATOM NAME           -
 -                 ----------                              ---------           -
 -                      1                                   C                  -
 -                      2                                   C                  -
 -                      3                                   C                  -
 -                      4                                   C                  -
 -                      5                                   C                  -
 -                      6                                   C                  -
 -                      7                                   C                  -
 -                      8                                   C                  -
 -                      9                                   C                  -
 -                     10                                   C                  -
 -                     11                                   C                  -
 -                     12                                   C                  -
 -                     13                                   C                  -
 -                     14                                   C                  -
 -                     15                                   C                  -
 -                     16                                   C                  -
 -                     17                                   C                  -
 -                     18                                   C                  -
 -                     19                                   C                  -
 -                     20                                   C                  -
 -                     21                                   C                  -
 -                     22                                   C                  -
 -                     23                                   C                  -
 -                     24                                   C                  -
 -                     25                                   C                  -
 -                     26                                   C                  -
 -                     27                                   C                  -
 -                     28                                   C                  -
 -                     29                                   C                  -
 -                     30                                   C                  -
 -                     31                                   C                  -
 -                     32                                   C                  -
 -                     33                                   C                  -
 -                     34                                   C                  -
 -                     35                                   C                  -
 -                     36                                   C                  -
 -                     37                                   C                  -
 -                     38                                   C                  -
 -                     39                                   C                  -
 -                     40                                   C                  -
 -                     41                                   C                  -
 -                     42                                   C                  -
 -                     43                                   C                  -
 -                     44                                   C                  -
 -                     45                                   C                  -
 -                     46                                   C                  -
 -                     47                                   C                  -
 -                     48                                   C                  -
 -                     49                                   C                  -
 -                     50                                   C                  -
 -                     51                                   C                  -
 -                     52                                   C                  -
 -                     53                                   C                  -
 -                     54                                   C                  -
 -                     55                                   C                  -
 -                     56                                   C                  -
 -                     57                                   C                  -
 -                     58                                   C                  -
 -                     59                                   C                  -
 -                     60                                   C                  -
 -                     61                                   C                  -
 -                     62                                   C                  -
 -                     63                                   C                  -
 -                     64                                   C                  -
 -                     65                                   C                  -
 -                     66                                   C                  -
 -                     67                                   C                  -
 -                     68                                   C                  -
 -                     69                                   C                  -
 -                     70                                   C                  -
 -                     71                                   C                  -
 -                     72                                   C                  -
 -                     73                                   C                  -
 -                     74                                   C                  -
 -                     75                                   C                  -
 -                     76                                   C                  -
 -                     77                                   C                  -
 -                     78                                   C                  -
 -                     79                                   C                  -
 -                     80                                   C                  -
 -                     81                                   C                  -
 -                     82                                   C                  -
 -                     83                                   C                  -
 -                     84                                   C                  -
 -                     85                                   C                  -
 -                     86                                   C                  -
 -                     87                                   C                  -
 -                     88                                   C                  -
 -                     89                                   C                  -
 -                     90                                   C                  -
 -                     91                                   C                  -
 -                     92                                   C                  -
 -                     93                                   C                  -
 -                     94                                   C                  -
 -                     95                                   C                  -
 -                     96                                   C                  -
 -                     97                                   C                  -
 -                     98                                   C                  -
 -                     99                                   C                  -
 -                    100                                   C                  -
 -                    101                                   C                  -
 -                    102                                   C                  -
 -                    103                                   C                  -
 -                    104                                   C                  -
 -                    105                                   C                  -
 -                    106                                   C                  -
 -                    107                                   C                  -
 -                    108                                   C                  -
 -                    109                                   C                  -
 -                    110                                   C                  -
 -                    111                                   C                  -
 -                    112                                   C                  -
 -------------------------------------------------------------------------------

 *******************************************************************************
 *******************************************************************************
 **                                                                           **
 **     #####                         ##              ##                      **
 **    ##   ##            ##          ##              ##                      **
 **   ##     ##                       ##            ######                    **
 **   ##     ##  ##   ##  ##   #####  ##  ##   ####   ##    #####    #####    **
 **   ##     ##  ##   ##  ##  ##      ## ##   ##      ##   ##   ##  ##   ##   **
 **   ##  ## ##  ##   ##  ##  ##      ####     ###    ##   ######   ######    **
 **    ##  ###   ##   ##  ##  ##      ## ##      ##   ##   ##       ##        **
 **     #######   #####   ##   #####  ##  ##  ####    ##    #####   ##        **
 **           ##                                                    ##        **
 **                                                                           **
 **                                                ... make the atoms dance   **
 **                                                                           **
 **            Copyright (C) by CP2K developers group (2000-2022)             **
 **                      J. Chem. Phys. 152, 194103 (2020)                    **
 **                                                                           **
 *******************************************************************************


 TOTAL NUMBERS AND MAXIMUM NUMBERS

  Total number of            - Atomic kinds:                                   1
                             - Atoms:                                        112
                             - Shell sets:                                   112
                             - Shells:                                       560
                             - Primitive Cartesian functions:                560
                             - Cartesian basis functions:                   1568
                             - Spherical basis functions:                   1456

  Maximum angular momentum of- Orbital basis functions:                        2
                             - Local part of the GTH pseudopotential:          2
                             - Non-local part of the GTH pseudopotential:      0


 SCF PARAMETERS         Density guess:                                    ATOMIC
                        --------------------------------------------------------
                        max_scf:                                             400
                        max_scf_history:                                       0
                        max_diis:                                              4
                        --------------------------------------------------------
                        eps_scf:                                        3.00E-07
                        eps_scf_history:                                0.00E+00
                        eps_diis:                                       1.00E-01
                        eps_eigval:                                     1.00E-05
                        --------------------------------------------------------
                        level_shift [a.u.]:                             0.000000
                        added MOs                                       100  100
                        --------------------------------------------------------
                        Mixing method:                            BROYDEN_MIXING
                                                charge density mixing in g-space
                        --------------------------------------------------------
                        Smear method:                                FERMI_DIRAC
                        Electronic temperature [K]:                        300.0
                        Electronic temperature [a.u.]:                  9.50E-04
                        Accuracy threshold:                             1.00E-10
                        --------------------------------------------------------
                        Outer loop SCF in use 
                        No variables optimised in outer loop
                        eps_scf                                         1.00E-06
                        max_scf                                              100
                        DIIS optimization
                        DIIS buffer length                                     3
                        step_size                                       5.00E-01

 Spin 1

 Number of electrons:                                                        224
 Number of occupied orbitals:                                                224
 Number of molecular orbitals:                                               324

 Spin 2

 Number of electrons:                                                        224
 Number of occupied orbitals:                                                224
 Number of molecular orbitals:                                               324

 Number of orbital functions:                                               1456
 Number of independent orbital functions:                                   1456

 Extrapolation method: initial_guess


 SCF WAVEFUNCTION OPTIMIZATION

  Step     Update method      Time    Convergence         Total energy    Change
  ------------------------------------------------------------------------------
     1 NoMix/Diag. 0.10E+00   10.4     0.46309973      -631.5188450465 -6.32E+02
     2 Broy./Diag. 0.10E+00   13.9     0.08790891      -610.2244821769  2.13E+01
     3 Broy./Diag. 0.10E+00   13.9     0.13984526      -617.2788477746 -7.05E+00
     4 Broy./Diag. 0.10E+00   14.8     0.34656325      -629.5798831400 -1.23E+01
     5 Broy./Diag. 0.10E+00   13.7     0.03041312      -633.7427035665 -4.16E+00
     6 Broy./Diag. 0.10E+00   14.0     0.46533647      -634.2233204943 -4.81E-01
     7 Broy./Diag. 0.10E+00   16.2     0.05801798      -634.7201040425 -4.97E-01
     8 Broy./Diag. 0.10E+00   15.6     0.05488493      -634.8028829974 -8.28E-02
     9 Broy./Diag. 0.10E+00   15.9     0.14830568      -634.9886412168 -1.86E-01
    10 Broy./Diag. 0.10E+00   15.7     0.17389244      -635.2229841857 -2.34E-01
    11 Broy./Diag. 0.10E+00   15.8     0.06688185      -635.3470064693 -1.24E-01
    12 Broy./Diag. 0.10E+00   15.9     0.01202534      -635.3594735514 -1.25E-02
    13 Broy./Diag. 0.10E+00   15.8     0.00874961      -635.4211539295 -6.17E-02
    14 Broy./Diag. 0.10E+00   15.9     0.00862629      -635.5198616835 -9.87E-02
    15 Broy./Diag. 0.10E+00   15.7     0.03857949      -635.6357012158 -1.16E-01
    16 Broy./Diag. 0.10E+00   15.7     0.02026917      -635.7563763036 -1.21E-01
    17 Broy./Diag. 0.10E+00   15.7     0.01715735      -635.8784212785 -1.22E-01
    18 Broy./Diag. 0.10E+00   16.8     0.00748004      -635.9114971120 -3.31E-02
    19 Broy./Diag. 0.10E+00   15.8     0.00306811      -635.9177821392 -6.29E-03
    20 Broy./Diag. 0.10E+00   15.9     0.00672328      -635.9108091822  6.97E-03
    21 Broy./Diag. 0.10E+00   16.3     0.00306115      -635.9031827415  7.63E-03
    22 Broy./Diag. 0.10E+00   15.9     0.00324639      -635.8730510193  3.01E-02
    23 Broy./Diag. 0.10E+00   15.8     0.00158131      -635.8575333789  1.55E-02
    24 Broy./Diag. 0.10E+00   15.8     0.00080211      -635.8670219730 -9.49E-03
    25 Broy./Diag. 0.10E+00   15.6     0.00095879      -635.8890048672 -2.20E-02
    26 Broy./Diag. 0.10E+00   15.8     0.00028436      -635.9132173915 -2.42E-02
    27 Broy./Diag. 0.10E+00   15.8     0.00008336      -635.9152312634 -2.01E-03
    28 Broy./Diag. 0.10E+00   16.4     0.00010630      -635.9071265247  8.10E-03
    29 Broy./Diag. 0.10E+00   15.9     0.00022491      -635.9083890704 -1.26E-03
    30 Broy./Diag. 0.10E+00   15.8     0.00027256      -635.9191895961 -1.08E-02
    31 Broy./Diag. 0.10E+00   15.6     0.00019169      -635.9266622687 -7.47E-03
    32 Broy./Diag. 0.10E+00   15.8     0.00007869      -635.9258724244  7.90E-04
    33 Broy./Diag. 0.10E+00   15.7     0.00009484      -635.9241975968  1.67E-03
    34 Broy./Diag. 0.10E+00   15.6     0.00007926      -635.9261263363 -1.93E-03
    35 Broy./Diag. 0.10E+00   15.9     0.00006526      -635.9290356703 -2.91E-03
    36 Broy./Diag. 0.10E+00   15.7     0.00007144      -635.9315262248 -2.49E-03
    37 Broy./Diag. 0.10E+00   15.7     0.00008308      -635.9317367028 -2.10E-04
    38 Broy./Diag. 0.10E+00   15.6     0.00004352      -635.9313144906  4.22E-04
    39 Broy./Diag. 0.10E+00   15.9     0.00004938      -635.9316838229 -3.69E-04
    40 Broy./Diag. 0.10E+00   15.9     0.00011295      -635.9332591935 -1.58E-03
    41 Broy./Diag. 0.10E+00   15.8     0.00006185      -635.9344244734 -1.17E-03
    42 Broy./Diag. 0.10E+00   15.8     0.00003773      -635.9341810610  2.43E-04
    43 Broy./Diag. 0.10E+00   15.6     0.00003889      -635.9335675841  6.13E-04
    44 Broy./Diag. 0.10E+00   15.6     0.00002549      -635.9336641235 -9.65E-05
    45 Broy./Diag. 0.10E+00   15.7     0.00003793      -635.9341161632 -4.52E-04
    46 Broy./Diag. 0.10E+00   15.7     0.00002277      -635.9345893484 -4.73E-04
    47 Broy./Diag. 0.10E+00   16.0     0.00004616      -635.9345716991  1.76E-05
    48 Broy./Diag. 0.10E+00   16.2     0.00009847      -635.9343557940  2.16E-04
    49 Broy./Diag. 0.10E+00   16.1     0.00008383      -635.9343386496  1.71E-05
    50 Broy./Diag. 0.10E+00   15.8     0.00001272      -635.9345868084 -2.48E-04
    51 Broy./Diag. 0.10E+00   16.0     0.00002317      -635.9348318591 -2.45E-04
    52 Broy./Diag. 0.10E+00   16.0     0.00000880      -635.9348155924  1.63E-05
    53 Broy./Diag. 0.10E+00   15.9     0.00002899      -635.9346955115  1.20E-04
    54 Broy./Diag. 0.10E+00   16.0     0.00003928      -635.9346390334  5.65E-05
    55 Broy./Diag. 0.10E+00   16.0     0.00002715      -635.9347279256 -8.89E-05
    56 Broy./Diag. 0.10E+00   56.1     0.00001236      -635.9347930162 -6.51E-05
    57 Broy./Diag. 0.10E+00  141.0     0.00003417      -635.9347402204  5.28E-05
    58 Broy./Diag. 0.10E+00  157.8     0.00004705      -635.9345848301  1.55E-04
    59 Broy./Diag. 0.10E+00  156.6     0.00002006      -635.9344848655  1.00E-04
    60 Broy./Diag. 0.10E+00  156.8     0.00000496      -635.9344839698  8.96E-07
    61 Broy./Diag. 0.10E+00  171.3     0.00007041      -635.9344963356 -1.24E-05
    62 Broy./Diag. 0.10E+00  163.8     0.00007024      -635.9345014191 -5.08E-06
    63 Broy./Diag. 0.10E+00  142.7     0.00006763      -635.9345182308 -1.68E-05
    64 Broy./Diag. 0.10E+00  164.1     0.00004881      -635.9345049269  1.33E-05
    65 Broy./Diag. 0.10E+00  163.0     0.00012187      -635.9344951860  9.74E-06
    66 Broy./Diag. 0.10E+00  134.6     0.00000549      -635.9345063116 -1.11E-05
    67 Broy./Diag. 0.10E+00  175.3     0.00001813      -635.9345263506 -2.00E-05
    68 Broy./Diag. 0.10E+00  168.4     0.00005600      -635.9345395115 -1.32E-05
    69 Broy./Diag. 0.10E+00  148.7     0.00004168      -635.9345460186 -6.51E-06
    70 Broy./Diag. 0.10E+00  159.8     0.00001147      -635.9345429161  3.10E-06
    71 Broy./Diag. 0.10E+00  140.5     0.00002792      -635.9345191869  2.37E-05
    72 Broy./Diag. 0.10E+00  166.6     0.00002400      -635.9345185194  6.67E-07
    73 Broy./Diag. 0.10E+00  169.5     0.00003964      -635.9345151090  3.41E-06
    74 Broy./Diag. 0.10E+00  164.7     0.00002456      -635.9344967645  1.83E-05
    75 Broy./Diag. 0.10E+00  163.4     0.00005764      -635.9345008811 -4.12E-06
    76 Broy./Diag. 0.10E+00  143.2     0.00001808      -635.9344767678  2.41E-05
    77 Broy./Diag. 0.10E+00  169.9     0.00004070      -635.9344596809  1.71E-05
    78 Broy./Diag. 0.10E+00  185.0     0.00001140      -635.9344602390 -5.58E-07
    79 Broy./Diag. 0.10E+00  144.5     0.00000659      -635.9344586164  1.62E-06
    80 Broy./Diag. 0.10E+00  162.2     0.00000660      -635.9344574668  1.15E-06
    81 Broy./Diag. 0.10E+00  170.8     0.00000274      -635.9344569701  4.97E-07
    82 Broy./Diag. 0.10E+00  162.7     0.00001231      -635.9344533380  3.63E-06
    83 Broy./Diag. 0.10E+00  152.3     0.00001067      -635.9344516992  1.64E-06
    84 Broy./Diag. 0.10E+00  163.7     0.00005865      -635.9344293892  2.23E-05
    85 Broy./Diag. 0.10E+00  180.7     0.00000634      -635.9344338486 -4.46E-06
    86 Broy./Diag. 0.10E+00  137.7     0.00000403      -635.9344300452  3.80E-06
    87 Broy./Diag. 0.10E+00  137.8     0.00001695      -635.9344181075  1.19E-05
    88 Broy./Diag. 0.10E+00  159.8     0.00002519      -635.9344088299  9.28E-06
    89 Broy./Diag. 0.10E+00  143.9     0.00003130      -635.9344137046 -4.87E-06
    90 Broy./Diag. 0.10E+00  157.3     0.00001953      -635.9344106125  3.09E-06
    91 Broy./Diag. 0.10E+00  152.7     0.00008390      -635.9344031359  7.48E-06
    92 Broy./Diag. 0.10E+00  162.2     0.00002679      -635.9344048397 -1.70E-06
    93 Broy./Diag. 0.10E+00  171.9     0.00008261      -635.9344056506 -8.11E-07
    94 Broy./Diag. 0.10E+00  169.3     0.00001242      -635.9343935424  1.21E-05
    95 Broy./Diag. 0.10E+00  151.2     0.00006175      -635.9343627685  3.08E-05
    96 Broy./Diag. 0.10E+00  150.5     0.00001245      -635.9343722080 -9.44E-06
    97 Broy./Diag. 0.10E+00  133.1     0.00001947      -635.9343720689  1.39E-07
    98 Broy./Diag. 0.10E+00  156.9     0.00001265      -635.9343715348  5.34E-07
    99 Broy./Diag. 0.10E+00  157.8     0.00003730      -635.9343734456 -1.91E-06
   100 Broy./Diag. 0.10E+00  133.2     0.00001795      -635.9343718568  1.59E-06
   101 Broy./Diag. 0.10E+00  151.0     0.00001161      -635.9343707479  1.11E-06
   102 Broy./Diag. 0.10E+00  152.2     0.00000668      -635.9343711784 -4.31E-07
   103 Broy./Diag. 0.10E+00  168.2     0.00003347      -635.9343665948  4.58E-06
   104 Broy./Diag. 0.10E+00  143.5     0.00003967      -635.9343601701  6.42E-06
   105 Broy./Diag. 0.10E+00  177.0     0.00002255      -635.9343667431 -6.57E-06
   106 Broy./Diag. 0.10E+00  175.7     0.00002220      -635.9343640489  2.69E-06
   107 Broy./Diag. 0.10E+00  156.0     0.00005515      -635.9343488846  1.52E-05
   108 Broy./Diag. 0.10E+00  159.5     0.00002385      -635.9343526291 -3.74E-06
   109 Broy./Diag. 0.10E+00  162.6     0.00008518      -635.9343346039  1.80E-05
   110 Broy./Diag. 0.10E+00  162.5     0.00001580      -635.9343376361 -3.03E-06
   111 Broy./Diag. 0.10E+00  152.1     0.00000886      -635.9343374741  1.62E-07
   112 Broy./Diag. 0.10E+00  152.6     0.00002009      -635.9343347250  2.75E-06
   113 Broy./Diag. 0.10E+00  175.3     0.00000881      -635.9343322977  2.43E-06
   114 Broy./Diag. 0.10E+00  148.2     0.00005258      -635.9343213015  1.10E-05
   115 Broy./Diag. 0.10E+00  156.3     0.00001405      -635.9343257365 -4.43E-06
   116 Broy./Diag. 0.10E+00  165.3     0.00001143      -635.9343252273  5.09E-07
   117 Broy./Diag. 0.10E+00  182.1     0.00003769      -635.9343274270 -2.20E-06
   118 Broy./Diag. 0.10E+00  151.5     0.00002909      -635.9343189906  8.44E-06
   119 Broy./Diag. 0.10E+00  154.9     0.00004124      -635.9343207494 -1.76E-06
   120 Broy./Diag. 0.10E+00  148.2     0.00001792      -635.9343219053 -1.16E-06
   121 Broy./Diag. 0.10E+00  171.5     0.00003883      -635.9343236610 -1.76E-06
   122 Broy./Diag. 0.10E+00  176.5     0.00000984      -635.9343233534  3.08E-07
   123 Broy./Diag. 0.10E+00  161.0     0.00000337      -635.9343212721  2.08E-06
   124 Broy./Diag. 0.10E+00  170.7     0.00000740      -635.9343198293  1.44E-06
   125 Broy./Diag. 0.10E+00  159.0     0.00001661      -635.9343168100  3.02E-06
   126 Broy./Diag. 0.10E+00  166.3     0.00001180      -635.9343208921 -4.08E-06
   127 Broy./Diag. 0.10E+00  167.7     0.00001915      -635.9343224649 -1.57E-06
   128 Broy./Diag. 0.10E+00  183.7     0.00002372      -635.9343130685  9.40E-06
   129 Broy./Diag. 0.10E+00  187.5     0.00001406      -635.9343045302  8.54E-06
   130 Broy./Diag. 0.10E+00  151.7     0.00000355      -635.9342981221  6.41E-06
   131 Broy./Diag. 0.10E+00  121.5     0.00002008      -635.9342883969  9.73E-06
   132 Broy./Diag. 0.10E+00  142.3     0.00000739      -635.9342842940  4.10E-06
   133 Broy./Diag. 0.10E+00  156.0     0.00002351      -635.9342856976 -1.40E-06
   134 Broy./Diag. 0.10E+00  157.5     0.00001319      -635.9342840268  1.67E-06
   135 Broy./Diag. 0.10E+00  123.6     0.00000249      -635.9342830311  9.96E-07
   136 Broy./Diag. 0.10E+00  142.5     0.00000176      -635.9342794093  3.62E-06
   137 Broy./Diag. 0.10E+00  145.7     0.00000316      -635.9342777078  1.70E-06
   138 Broy./Diag. 0.10E+00  149.5     0.00000398      -635.9342787987 -1.09E-06
   139 Broy./Diag. 0.10E+00  140.9     0.00000241      -635.9342787539  4.48E-08
   140 Broy./Diag. 0.10E+00  162.7     0.00000106      -635.9342777427  1.01E-06
   141 Broy./Diag. 0.10E+00  154.9     0.00000483      -635.9342762923  1.45E-06
   142 Broy./Diag. 0.10E+00  140.8     0.00000588      -635.9342756130  6.79E-07
   143 Broy./Diag. 0.10E+00  131.8     0.00000883      -635.9342706002  5.01E-06
   144 Broy./Diag. 0.10E+00  162.6     0.00000666      -635.9342668754  3.72E-06
   145 Broy./Diag. 0.10E+00  152.6     0.00001167      -635.9342655969  1.28E-06
   146 Broy./Diag. 0.10E+00  153.0     0.00001681      -635.9342634493  2.15E-06
   147 Broy./Diag. 0.10E+00  154.5     0.00000515      -635.9342644855 -1.04E-06
   148 Broy./Diag. 0.10E+00  157.5     0.00000284      -635.9342646787 -1.93E-07
   149 Broy./Diag. 0.10E+00  164.5     0.00000370      -635.9342648804 -2.02E-07
   150 Broy./Diag. 0.10E+00  159.2     0.00000660      -635.9342650789 -1.98E-07
   151 Broy./Diag. 0.10E+00  170.6     0.00000806      -635.9342658017 -7.23E-07
   152 Broy./Diag. 0.10E+00  164.2     0.00000325      -635.9342661975 -3.96E-07
   153 Broy./Diag. 0.10E+00  167.1     0.00001386      -635.9342638357  2.36E-06
   154 Broy./Diag. 0.10E+00  171.0     0.00000486      -635.9342635253  3.10E-07
   155 Broy./Diag. 0.10E+00  146.4     0.00001814      -635.9342613632  2.16E-06
   156 Broy./Diag. 0.10E+00  180.5     0.00001143      -635.9342587349  2.63E-06
   157 Broy./Diag. 0.10E+00  169.6     0.00000462      -635.9342595124 -7.77E-07
   158 Broy./Diag. 0.10E+00  153.8     0.00000675      -635.9342597035 -1.91E-07
   159 Broy./Diag. 0.10E+00  139.6     0.00000440      -635.9342593514  3.52E-07
   160 Broy./Diag. 0.10E+00  162.0     0.00000299      -635.9342597074 -3.56E-07
   161 Broy./Diag. 0.10E+00  159.0     0.00000475      -635.9342595846  1.23E-07
   162 Broy./Diag. 0.10E+00  177.5     0.00000177      -635.9342587461  8.38E-07
   163 Broy./Diag. 0.10E+00  144.0     0.00000785      -635.9342594348 -6.89E-07
   164 Broy./Diag. 0.10E+00  170.8     0.00000754      -635.9342589647  4.70E-07
   165 Broy./Diag. 0.10E+00  153.7     0.00001249      -635.9342596145 -6.50E-07
   166 Broy./Diag. 0.10E+00  141.5     0.00000465      -635.9342589087  7.06E-07
   167 Broy./Diag. 0.10E+00  172.1     0.00003048      -635.9342618134 -2.90E-06
   168 Broy./Diag. 0.10E+00  173.9     0.00000616      -635.9342606062  1.21E-06
   169 Broy./Diag. 0.10E+00  159.8     0.00000300      -635.9342596145  9.92E-07
   170 Broy./Diag. 0.10E+00  145.4     0.00000707      -635.9342585751  1.04E-06
   171 Broy./Diag. 0.10E+00  177.1     0.00000332      -635.9342582201  3.55E-07
   172 Broy./Diag. 0.10E+00  164.2     0.00001345      -635.9342565094  1.71E-06
   173 Broy./Diag. 0.10E+00  176.0     0.00001524      -635.9342532012  3.31E-06
   174 Broy./Diag. 0.10E+00  160.7     0.00000716      -635.9342525878  6.13E-07
   175 Broy./Diag. 0.10E+00  179.2     0.00000489      -635.9342525186  6.92E-08
   176 Broy./Diag. 0.10E+00  152.0     0.00002047      -635.9342484096  4.11E-06
   177 Broy./Diag. 0.10E+00  153.3     0.00001809      -635.9342430254  5.38E-06
   178 Broy./Diag. 0.10E+00  164.3     0.00000558      -635.9342421561  8.69E-07
   179 Broy./Diag. 0.10E+00  184.2     0.00000345      -635.9342417859  3.70E-07
   180 Broy./Diag. 0.10E+00  154.4     0.00000831      -635.9342428789 -1.09E-06
   181 Broy./Diag. 0.10E+00  176.7     0.00000157      -635.9342429206 -4.17E-08
   182 Broy./Diag. 0.10E+00  149.4     0.00000288      -635.9342428663  5.42E-08
   183 Broy./Diag. 0.10E+00  147.6     0.00000305      -635.9342426719  1.94E-07
   184 Broy./Diag. 0.10E+00  168.6     0.00000137      -635.9342429561 -2.84E-07
   185 Broy./Diag. 0.10E+00  161.4     0.00000161      -635.9342432973 -3.41E-07
   186 Broy./Diag. 0.10E+00  170.8     0.00000095      -635.9342434490 -1.52E-07
   187 Broy./Diag. 0.10E+00  158.0     0.00000210      -635.9342433992  4.98E-08
   188 Broy./Diag. 0.10E+00  162.8     0.00000412      -635.9342438867 -4.88E-07
   189 Broy./Diag. 0.10E+00  168.8     0.00000522      -635.9342436363  2.50E-07
   190 Broy./Diag. 0.10E+00   92.9     0.00000311      -635.9342433532  2.83E-07
   191 Broy./Diag. 0.10E+00   48.1     0.00001070      -635.9342429610  3.92E-07
   192 Broy./Diag. 0.10E+00   53.4     0.00000523      -635.9342429333  2.77E-08
   193 Broy./Diag. 0.10E+00   48.4     0.00000424      -635.9342428716  6.17E-08
   194 Broy./Diag. 0.10E+00   45.7     0.00000301      -635.9342429221 -5.05E-08
   195 Broy./Diag. 0.10E+00   49.2     0.00000349      -635.9342431070 -1.85E-07
   196 Broy./Diag. 0.10E+00   41.8     0.00000541      -635.9342427938  3.13E-07
   197 Broy./Diag. 0.10E+00   47.4     0.00000251      -635.9342425249  2.69E-07
   198 Broy./Diag. 0.10E+00   48.9     0.00000677      -635.9342425986 -7.37E-08
   199 Broy./Diag. 0.10E+00   50.9     0.00000387      -635.9342420571  5.42E-07
   200 Broy./Diag. 0.10E+00   53.1     0.00001087      -635.9342427325 -6.75E-07
   201 Broy./Diag. 0.10E+00   49.7     0.00000231      -635.9342426505  8.20E-08
   202 Broy./Diag. 0.10E+00   50.9     0.00000312      -635.9342426991 -4.86E-08
   203 Broy./Diag. 0.10E+00   43.9     0.00000166      -635.9342425384  1.61E-07
   204 Broy./Diag. 0.10E+00   45.0     0.00000126      -635.9342426090 -7.05E-08
   205 Broy./Diag. 0.10E+00   44.8     0.00000194      -635.9342425361  7.28E-08
   206 Broy./Diag. 0.10E+00   45.3     0.00000132      -635.9342424910  4.51E-08
   207 Broy./Diag. 0.10E+00   46.3     0.00000231      -635.9342423699  1.21E-07
   208 Broy./Diag. 0.10E+00   41.9     0.00000030      -635.9342423019  6.80E-08
   209 Broy./Diag. 0.10E+00   52.7     0.00000136      -635.9342422647  3.72E-08
   210 Broy./Diag. 0.10E+00   43.9     0.00000255      -635.9342424723 -2.08E-07
   211 Broy./Diag. 0.10E+00   56.3     0.00000414      -635.9342421014  3.71E-07
   212 Broy./Diag. 0.10E+00   55.4     0.00000765      -635.9342413325  7.69E-07
   213 Broy./Diag. 0.10E+00   49.1     0.00001067      -635.9342412077  1.25E-07
   214 Broy./Diag. 0.10E+00   51.6     0.00000375      -635.9342410424  1.65E-07
   215 Broy./Diag. 0.10E+00   51.9     0.00000755      -635.9342413168 -2.74E-07
   216 Broy./Diag. 0.10E+00   43.6     0.00000221      -635.9342412170  9.98E-08
   217 Broy./Diag. 0.10E+00   50.3     0.00000302      -635.9342412947 -7.77E-08
   218 Broy./Diag. 0.10E+00   56.4     0.00000185      -635.9342408035  4.91E-07
   219 Broy./Diag. 0.10E+00   53.5     0.00000264      -635.9342404423  3.61E-07
   220 Broy./Diag. 0.10E+00   51.4     0.00000180      -635.9342403610  8.13E-08
   221 Broy./Diag. 0.10E+00   54.3     0.00000158      -635.9342401290  2.32E-07
   222 Broy./Diag. 0.10E+00   49.4     0.00000398      -635.9342402327 -1.04E-07
   223 Broy./Diag. 0.10E+00   48.1     0.00000682      -635.9342397181  5.15E-07
   224 Broy./Diag. 0.10E+00   48.1     0.00001069      -635.9342376027  2.12E-06
   225 Broy./Diag. 0.10E+00   47.4     0.00000093      -635.9342382121 -6.09E-07
   226 Broy./Diag. 0.10E+00   57.2     0.00000810      -635.9342378565  3.56E-07
   227 Broy./Diag. 0.10E+00   47.3     0.00000058      -635.9342379620 -1.05E-07
   228 Broy./Diag. 0.10E+00   48.2     0.00000166      -635.9342382201 -2.58E-07
   229 Broy./Diag. 0.10E+00   51.9     0.00000419      -635.9342376858  5.34E-07
   230 Broy./Diag. 0.10E+00   50.1     0.00000660      -635.9342373849  3.01E-07
   231 Broy./Diag. 0.10E+00   50.3     0.00000464      -635.9342376375 -2.53E-07
   232 Broy./Diag. 0.10E+00   38.8     0.00000202      -635.9342375468  9.08E-08
   233 Broy./Diag. 0.10E+00    9.5     0.00000342      -635.9342375118  3.49E-08
   234 Broy./Diag. 0.10E+00   10.9     0.00000250      -635.9342371735  3.38E-07
   235 Broy./Diag. 0.10E+00    9.5     0.00000480      -635.9342365152  6.58E-07
   236 Broy./Diag. 0.10E+00    9.5     0.00000749      -635.9342362492  2.66E-07
   237 Broy./Diag. 0.10E+00   11.1     0.00000299      -635.9342362816 -3.24E-08
   238 Broy./Diag. 0.10E+00    9.5     0.00000525      -635.9342358289  4.53E-07
   239 Broy./Diag. 0.10E+00   10.7     0.00000291      -635.9342361661 -3.37E-07
   240 Broy./Diag. 0.10E+00    9.7     0.00000260      -635.9342361382  2.79E-08
   241 Broy./Diag. 0.10E+00    9.4     0.00000010      -635.9342361830 -4.49E-08

  *** SCF run converged in   241 steps ***


  Electronic density on regular grids:       -447.9999999998        0.0000000002
  Core density on regular grids:              447.9999999996       -0.0000000004
  Total charge density on r-space grids:       -0.0000000002
  Total charge density g-space grids:          -0.0000000002

  Overlap energy of the core charge distribution:               0.00001865557362
  Self energy of the core charge distribution:              -1493.52088779770361
  Core Hamiltonian energy:                                    464.66110920714567
  Hartree energy:                                             587.11712519828359
  Exchange-correlation energy:                               -194.06717689772424
  Dispersion energy:                                           -0.11774154511310
  Electronic entropic energy:                                  -0.00668300358410
  Fermi energy:                                                -0.15834028777116

  Total energy:                                              -635.93423618304041

  outer SCF iter =    1 RMS gradient =   0.99E-07 energy =       -635.9342361830
  outer SCF loop converged in   1 iterations or  241 steps


  Integrated absolute spin density  :                               0.0009180016
  WARNING: S**2 computation does not yet treat fractional occupied orbitals

 *** WARNING in qs_loc_utils.F:1500 :: User requested the calculation of ***
 *** the localized wavefunction but the section LOCALIZE was not         ***
 *** specified. Localization will not be performed!                      ***


 -------------------------------------------------------------------------------
 -                                                                             -
 -  BSSE CALCULATION         FRAGMENT CONF: 01        FRAGMENT SUBCONF: 01     -
 -                           CHARGE =     0           MULTIPLICITY =     0     -
 -                                                                             -
 -                 ATOM INDEX                              ATOM NAME           -
 -                 ----------                              ---------           -
 -                    113                                   Na                 -
 -------------------------------------------------------------------------------

 *******************************************************************************
 *******************************************************************************
 **                                                                           **
 **     #####                         ##              ##                      **
 **    ##   ##            ##          ##              ##                      **
 **   ##     ##                       ##            ######                    **
 **   ##     ##  ##   ##  ##   #####  ##  ##   ####   ##    #####    #####    **
 **   ##     ##  ##   ##  ##  ##      ## ##   ##      ##   ##   ##  ##   ##   **
 **   ##  ## ##  ##   ##  ##  ##      ####     ###    ##   ######   ######    **
 **    ##  ###   ##   ##  ##  ##      ## ##      ##   ##   ##       ##        **
 **     #######   #####   ##   #####  ##  ##  ####    ##    #####   ##        **
 **           ##                                                    ##        **
 **                                                                           **
 **                                                ... make the atoms dance   **
 **                                                                           **
 **            Copyright (C) by CP2K developers group (2000-2022)             **
 **                      J. Chem. Phys. 152, 194103 (2020)                    **
 **                                                                           **
 *******************************************************************************

 *** WARNING in qs_environment.F:1470 :: More ADDED_MOs requested for beta ***
 *** spin than available.                                                  ***


 *** WARNING in qs_environment.F:1486 :: More added MOs requested than     ***
 *** available. The full set of unoccupied MOs will be used. Use           ***
 *** 'ADDED_MOS -1' to always use all available MOs and to get rid of this ***
 *** warning.                                                              ***



 TOTAL NUMBERS AND MAXIMUM NUMBERS

  Total number of            - Atomic kinds:                                   1
                             - Atoms:                                          1
                             - Shell sets:                                     1
                             - Shells:                                         5
                             - Primitive Cartesian functions:                  7
                             - Cartesian basis functions:                      9
                             - Spherical basis functions:                      9

  Maximum angular momentum of- Orbital basis functions:                        1
                             - Local part of the GTH pseudopotential:          2
                             - Non-local part of the GTH pseudopotential:      1


 SCF PARAMETERS         Density guess:                                    ATOMIC
                        --------------------------------------------------------
                        max_scf:                                             400
                        max_scf_history:                                       0
                        max_diis:                                              4
                        --------------------------------------------------------
                        eps_scf:                                        3.00E-07
                        eps_scf_history:                                0.00E+00
                        eps_diis:                                       1.00E-01
                        eps_eigval:                                     1.00E-05
                        --------------------------------------------------------
                        level_shift [a.u.]:                             0.000000
                        added MOs                                         4    5
                        --------------------------------------------------------
                        Mixing method:                            BROYDEN_MIXING
                                                charge density mixing in g-space
                        --------------------------------------------------------
                        Smear method:                                FERMI_DIRAC
                        Electronic temperature [K]:                        300.0
                        Electronic temperature [a.u.]:                  9.50E-04
                        Accuracy threshold:                             1.00E-10
                        --------------------------------------------------------
                        Outer loop SCF in use 
                        No variables optimised in outer loop
                        eps_scf                                         1.00E-06
                        max_scf                                              100
                        DIIS optimization
                        DIIS buffer length                                     3
                        step_size                                       5.00E-01

 Spin 1

 Number of electrons:                                                          5
 Number of occupied orbitals:                                                  5
 Number of molecular orbitals:                                                 9

 Spin 2

 Number of electrons:                                                          4
 Number of occupied orbitals:                                                  4
 Number of molecular orbitals:                                                 9

 Number of orbital functions:                                                  9
 Number of independent orbital functions:                                      9

 Extrapolation method: initial_guess


 SCF WAVEFUNCTION OPTIMIZATION

  Step     Update method      Time    Convergence         Total energy    Change
  ------------------------------------------------------------------------------
     1 NoMix/Diag. 0.10E+00    2.0     0.42029118       -47.1695495572 -4.72E+01
     2 Broy./Diag. 0.10E+00    6.2     0.00659232       -47.1292410560  4.03E-02
     3 Broy./Diag. 0.10E+00    4.6     0.02132677       -47.1698269853 -4.06E-02
     4 Broy./Diag. 0.10E+00    4.5     0.00031902       -47.1614051534  8.42E-03
     5 Broy./Diag. 0.10E+00    4.6     0.12558348       -47.1720870346 -1.07E-02
     6 Broy./Diag. 0.10E+00    4.7     0.01722884       -46.7636703724  4.08E-01
     7 Broy./Diag. 0.10E+00    4.8     0.00354338       -46.7534147020  1.03E-02
     8 Broy./Diag. 0.10E+00    5.5     0.01094284       -46.7673298254 -1.39E-02
     9 Broy./Diag. 0.10E+00    6.2     0.04253848       -46.8623683787 -9.50E-02
    10 Broy./Diag. 0.10E+00    6.5     0.01704821       -47.0142257855 -1.52E-01
    11 Broy./Diag. 0.10E+00    5.7     0.00537556       -47.0827283088 -6.85E-02
    12 Broy./Diag. 0.10E+00    5.4     0.01476471       -47.1040522943 -2.13E-02
    13 Broy./Diag. 0.10E+00    5.4     0.01865951       -47.1511605980 -4.71E-02
    14 Broy./Diag. 0.10E+00    5.4     0.00372560       -47.1995470715 -4.84E-02
    15 Broy./Diag. 0.10E+00    5.9     0.01203348       -47.1657890059  3.38E-02
    16 Broy./Diag. 0.10E+00    6.5     0.01046921       -47.1961911567 -3.04E-02
    17 Broy./Diag. 0.10E+00    6.4     0.00131643       -47.2422494887 -4.61E-02
    18 Broy./Diag. 0.10E+00    5.7     0.00360577       -47.2396047331  2.64E-03
    19 Broy./Diag. 0.10E+00    5.4     0.00419379       -47.2650242858 -2.54E-02
    20 Broy./Diag. 0.10E+00    5.4     0.00357934       -47.2860086511 -2.10E-02
    21 Broy./Diag. 0.10E+00    5.5     0.00116067       -47.2972851481 -1.13E-02
    22 Broy./Diag. 0.10E+00    6.1     0.00037209       -47.2918849694  5.40E-03
    23 Broy./Diag. 0.10E+00    6.6     0.00018735       -47.2910328877  8.52E-04
    24 Broy./Diag. 0.10E+00    6.3     0.01139057       -47.2942639867 -3.23E-03
    25 Broy./Diag. 0.10E+00    5.6     0.00348136       -47.2396568199  5.46E-02
    26 Broy./Diag. 0.10E+00    5.4     0.00286972       -47.2216801019  1.80E-02
    27 Broy./Diag. 0.10E+00    5.4     0.00085540       -47.2082421107  1.34E-02
    28 Broy./Diag. 0.10E+00    5.4     0.00044757       -47.2046975377  3.54E-03
    29 Broy./Diag. 0.10E+00    5.9     0.00284478       -47.2079007160 -3.20E-03
    30 Broy./Diag. 0.10E+00    6.6     0.00329326       -47.2172106849 -9.31E-03
    31 Broy./Diag. 0.10E+00    6.2     0.00076868       -47.2321489739 -1.49E-02
    32 Broy./Diag. 0.10E+00    5.6     0.00153652       -47.2351758046 -3.03E-03
    33 Broy./Diag. 0.10E+00    5.4     0.00243369       -47.2405250091 -5.35E-03
    34 Broy./Diag. 0.10E+00    5.4     0.00099516       -47.2520016343 -1.15E-02
    35 Broy./Diag. 0.10E+00    5.4     0.00247234       -47.2566125014 -4.61E-03
    36 Broy./Diag. 0.10E+00    5.9     0.00096470       -47.2680367389 -1.14E-02
    37 Broy./Diag. 0.10E+00    6.6     0.00028991       -47.2717289002 -3.69E-03
    38 Broy./Diag. 0.10E+00    6.3     0.00079375       -47.2748650702 -3.14E-03
    39 Broy./Diag. 0.10E+00    5.6     0.00132013       -47.2694689555  5.40E-03
    40 Broy./Diag. 0.10E+00    5.4     0.00017619       -47.2657794667  3.69E-03
    41 Broy./Diag. 0.10E+00    5.4     0.00019431       -47.2563702267  9.41E-03
    42 Broy./Diag. 0.10E+00    5.4     0.00027638       -47.2417537738  1.46E-02
    43 Broy./Diag. 0.10E+00    5.9     0.00033635       -47.2233935324  1.84E-02
    44 Broy./Diag. 0.10E+00    6.6     0.00035977       -47.2025044085  2.09E-02
    45 Broy./Diag. 0.10E+00    6.3     0.00020269       -47.1879876254  1.45E-02
    46 Broy./Diag. 0.10E+00    5.6     0.00022322       -47.1723487581  1.56E-02
    47 Broy./Diag. 0.10E+00    5.4     0.00009599       -47.1648882863  7.46E-03
    48 Broy./Diag. 0.10E+00    5.9     0.00001719       -47.1638076631  1.08E-03
    49 Broy./Diag. 0.10E+00    5.4     0.00002453       -47.1639999868 -1.92E-04
    50 Broy./Diag. 0.10E+00    5.9     0.00007906       -47.1641562577 -1.56E-04
    51 Broy./Diag. 0.10E+00    6.5     0.00004505       -47.1643729506 -2.17E-04
    52 Broy./Diag. 0.10E+00    6.5     0.00015601       -47.1643282342  4.47E-05
    53 Broy./Diag. 0.10E+00    5.6     0.00030151       -47.1642365796  9.17E-05
    54 Broy./Diag. 0.10E+00    5.4     0.00017651       -47.1691088133 -4.87E-03
    55 Broy./Diag. 0.10E+00    5.3     0.00023021       -47.1688716458  2.37E-04
    56 Broy./Diag. 0.10E+00    5.4     0.00022442       -47.1654993317  3.37E-03
    57 Broy./Diag. 0.10E+00    5.9     0.00032058       -47.1631196272  2.38E-03
    58 Broy./Diag. 0.10E+00    6.4     0.00007143       -47.1620092026  1.11E-03
    59 Broy./Diag. 0.10E+00    6.5     0.00012432       -47.1636842923 -1.68E-03
    60 Broy./Diag. 0.10E+00    5.6     0.00024931       -47.1640836178 -3.99E-04
    61 Broy./Diag. 0.10E+00    5.4     0.00005399       -47.1625353823  1.55E-03
    62 Broy./Diag. 0.10E+00    5.3     0.00023412       -47.1615981738  9.37E-04
    63 Broy./Diag. 0.10E+00    5.4     0.00042831       -47.1606596230  9.39E-04
    64 Broy./Diag. 0.10E+00    5.9     0.00002523       -47.1622548944 -1.60E-03
    65 Broy./Diag. 0.10E+00    6.4     0.00007034       -47.1624808209 -2.26E-04
    66 Broy./Diag. 0.10E+00    6.5     0.00035356       -47.1634623243 -9.82E-04
    67 Broy./Diag. 0.10E+00    5.6     0.00051416       -47.1645394678 -1.08E-03
    68 Broy./Diag. 0.10E+00    5.4     0.00004652       -47.1658903245 -1.35E-03
    69 Broy./Diag. 0.10E+00    5.3     0.00048065       -47.1645332293  1.36E-03
    70 Broy./Diag. 0.10E+00    5.3     0.00011654       -47.1657766250 -1.24E-03
    71 Broy./Diag. 0.10E+00    6.2     0.00013678       -47.1649571313  8.19E-04
    72 Broy./Diag. 0.10E+00    6.4     0.00008495       -47.1643363474  6.21E-04
    73 Broy./Diag. 0.10E+00    7.1     0.00011641       -47.1639487227  3.88E-04
    74 Broy./Diag. 0.10E+00    5.4     0.00003368       -47.1632397371  7.09E-04
    75 Broy./Diag. 0.10E+00    5.3     0.00012574       -47.1629903684  2.49E-04
    76 Broy./Diag. 0.10E+00    5.3     0.00002170       -47.1624161306  5.74E-04
    77 Broy./Diag. 0.10E+00    5.3     0.00001732       -47.1623880363  2.81E-05
    78 Broy./Diag. 0.10E+00    5.4     0.00001775       -47.1630721256 -6.84E-04
    79 Broy./Diag. 0.10E+00    5.6     0.00005176       -47.1635261386 -4.54E-04
    80 Broy./Diag. 0.10E+00    6.7     0.00002909       -47.1635692326 -4.31E-05
    81 Broy./Diag. 0.10E+00    5.8     0.00000615       -47.1634122351  1.57E-04
    82 Broy./Diag. 0.10E+00    5.4     0.00000106       -47.1633714116  4.08E-05
    83 Broy./Diag. 0.10E+00    5.3     0.00000592       -47.1635539374 -1.83E-04
    84 Broy./Diag. 0.10E+00    5.4     0.00000454       -47.1635613607 -7.42E-06
    85 Broy./Diag. 0.10E+00    5.3     0.00000099       -47.1635902298 -2.89E-05
    86 Broy./Diag. 0.10E+00    5.8     0.00000334       -47.1635698779  2.04E-05
    87 Broy./Diag. 0.10E+00    6.2     0.00000244       -47.1635445796  2.53E-05
    88 Broy./Diag. 0.10E+00    6.6     0.00000519       -47.1635147984  2.98E-05
    89 Broy./Diag. 0.10E+00    5.5     0.00000601       -47.1635025446  1.23E-05
    90 Broy./Diag. 0.10E+00    5.4     0.00000858       -47.1634736736  2.89E-05
    91 Broy./Diag. 0.10E+00    5.3     0.00001086       -47.1634887361 -1.51E-05
    92 Broy./Diag. 0.10E+00    5.3     0.00000803       -47.1634716956  1.70E-05
    93 Broy./Diag. 0.10E+00    5.5     0.00000428       -47.1635091758 -3.75E-05
    94 Broy./Diag. 0.10E+00    5.7     0.00000088       -47.1634980954  1.11E-05
    95 Broy./Diag. 0.10E+00    7.1     0.00000303       -47.1635098600 -1.18E-05
    96 Broy./Diag. 0.10E+00    5.2     0.00000225       -47.1635266777 -1.68E-05
    97 Broy./Diag. 0.10E+00    5.2     0.00000449       -47.1635369150 -1.02E-05
    98 Broy./Diag. 0.10E+00    6.0     0.00000147       -47.1635517374 -1.48E-05
    99 Broy./Diag. 0.10E+00    5.7     0.00000077       -47.1635276995  2.40E-05
   100 Broy./Diag. 0.10E+00    5.4     0.00000060       -47.1635188923  8.81E-06
   101 Broy./Diag. 0.10E+00    5.7     0.00000036       -47.1635148226  4.07E-06
   102 Broy./Diag. 0.10E+00    6.4     0.00000015       -47.1635090609  5.76E-06

  *** SCF run converged in   102 steps ***


  Electronic density on regular grids:         -8.9999571001        0.0000428999
  Core density on regular grids:                9.0000000000       -0.0000000000
  Total charge density on r-space grids:        0.0000428999
  Total charge density g-space grids:           0.0000428999

  Overlap energy of the core charge distribution:               0.00000000000000
  Self energy of the core charge distribution:                -96.60649019442629
  Core Hamiltonian energy:                                     29.76168539615876
  Hartree energy:                                              26.73634552626281
  Exchange-correlation energy:                                 -7.05504858412321
  Dispersion energy:                                           -0.00000120476189
  Electronic entropic energy:                                  -0.00000000000000
  Fermi energy:                                                -0.07221319222905

  Total energy:                                               -47.16350906088980

  outer SCF iter =    1 RMS gradient =   0.15E-06 energy =        -47.1635090609
  outer SCF loop converged in   1 iterations or  102 steps


  Integrated absolute spin density  :                               1.0000401620
  WARNING: S**2 computation does not yet treat fractional occupied orbitals

 *** WARNING in qs_loc_utils.F:1500 :: User requested the calculation of ***
 *** the localized wavefunction but the section LOCALIZE was not         ***
 *** specified. Localization will not be performed!                      ***


 -------------------------------------------------------------------------------
 -                                                                             -
 -  BSSE CALCULATION         FRAGMENT CONF: 11        FRAGMENT SUBCONF: 10     -
 -                           CHARGE =     0           MULTIPLICITY =     0     -
 -                                                                             -
 -                 ATOM INDEX                              ATOM NAME           -
 -                 ----------                              ---------           -
 -                      1                                   C                  -
 -                      2                                   C                  -
 -                      3                                   C                  -
 -                      4                                   C                  -
 -                      5                                   C                  -
 -                      6                                   C                  -
 -                      7                                   C                  -
 -                      8                                   C                  -
 -                      9                                   C                  -
 -                     10                                   C                  -
 -                     11                                   C                  -
 -                     12                                   C                  -
 -                     13                                   C                  -
 -                     14                                   C                  -
 -                     15                                   C                  -
 -                     16                                   C                  -
 -                     17                                   C                  -
 -                     18                                   C                  -
 -                     19                                   C                  -
 -                     20                                   C                  -
 -                     21                                   C                  -
 -                     22                                   C                  -
 -                     23                                   C                  -
 -                     24                                   C                  -
 -                     25                                   C                  -
 -                     26                                   C                  -
 -                     27                                   C                  -
 -                     28                                   C                  -
 -                     29                                   C                  -
 -                     30                                   C                  -
 -                     31                                   C                  -
 -                     32                                   C                  -
 -                     33                                   C                  -
 -                     34                                   C                  -
 -                     35                                   C                  -
 -                     36                                   C                  -
 -                     37                                   C                  -
 -                     38                                   C                  -
 -                     39                                   C                  -
 -                     40                                   C                  -
 -                     41                                   C                  -
 -                     42                                   C                  -
 -                     43                                   C                  -
 -                     44                                   C                  -
 -                     45                                   C                  -
 -                     46                                   C                  -
 -                     47                                   C                  -
 -                     48                                   C                  -
 -                     49                                   C                  -
 -                     50                                   C                  -
 -                     51                                   C                  -
 -                     52                                   C                  -
 -                     53                                   C                  -
 -                     54                                   C                  -
 -                     55                                   C                  -
 -                     56                                   C                  -
 -                     57                                   C                  -
 -                     58                                   C                  -
 -                     59                                   C                  -
 -                     60                                   C                  -
 -                     61                                   C                  -
 -                     62                                   C                  -
 -                     63                                   C                  -
 -                     64                                   C                  -
 -                     65                                   C                  -
 -                     66                                   C                  -
 -                     67                                   C                  -
 -                     68                                   C                  -
 -                     69                                   C                  -
 -                     70                                   C                  -
 -                     71                                   C                  -
 -                     72                                   C                  -
 -                     73                                   C                  -
 -                     74                                   C                  -
 -                     75                                   C                  -
 -                     76                                   C                  -
 -                     77                                   C                  -
 -                     78                                   C                  -
 -                     79                                   C                  -
 -                     80                                   C                  -
 -                     81                                   C                  -
 -                     82                                   C                  -
 -                     83                                   C                  -
 -                     84                                   C                  -
 -                     85                                   C                  -
 -                     86                                   C                  -
 -                     87                                   C                  -
 -                     88                                   C                  -
 -                     89                                   C                  -
 -                     90                                   C                  -
 -                     91                                   C                  -
 -                     92                                   C                  -
 -                     93                                   C                  -
 -                     94                                   C                  -
 -                     95                                   C                  -
 -                     96                                   C                  -
 -                     97                                   C                  -
 -                     98                                   C                  -
 -                     99                                   C                  -
 -                    100                                   C                  -
 -                    101                                   C                  -
 -                    102                                   C                  -
 -                    103                                   C                  -
 -                    104                                   C                  -
 -                    105                                   C                  -
 -                    106                                   C                  -
 -                    107                                   C                  -
 -                    108                                   C                  -
 -                    109                                   C                  -
 -                    110                                   C                  -
 -                    111                                   C                  -
 -                    112                                   C                  -
 -                    113                                   Na_ghost           -
 -------------------------------------------------------------------------------

 *******************************************************************************
 *******************************************************************************
 **                                                                           **
 **     #####                         ##              ##                      **
 **    ##   ##            ##          ##              ##                      **
 **   ##     ##                       ##            ######                    **
 **   ##     ##  ##   ##  ##   #####  ##  ##   ####   ##    #####    #####    **
 **   ##     ##  ##   ##  ##  ##      ## ##   ##      ##   ##   ##  ##   ##   **
 **   ##  ## ##  ##   ##  ##  ##      ####     ###    ##   ######   ######    **
 **    ##  ###   ##   ##  ##  ##      ## ##      ##   ##   ##       ##        **
 **     #######   #####   ##   #####  ##  ##  ####    ##    #####   ##        **
 **           ##                                                    ##        **
 **                                                                           **
 **                                                ... make the atoms dance   **
 **                                                                           **
 **            Copyright (C) by CP2K developers group (2000-2022)             **
 **                      J. Chem. Phys. 152, 194103 (2020)                    **
 **                                                                           **
 *******************************************************************************


 TOTAL NUMBERS AND MAXIMUM NUMBERS

  Total number of            - Atomic kinds:                                   2
                             - Atoms:                                        113
                             - Shell sets:                                   113
                             - Shells:                                       565
                             - Primitive Cartesian functions:                567
                             - Cartesian basis functions:                   1577
                             - Spherical basis functions:                   1465

  Maximum angular momentum of- Orbital basis functions:                        2
                             - Local part of the GTH pseudopotential:          2
                             - Non-local part of the GTH pseudopotential:      0


 SCF PARAMETERS         Density guess:                                    ATOMIC
                        --------------------------------------------------------
                        max_scf:                                             400
                        max_scf_history:                                       0
                        max_diis:                                              4
                        --------------------------------------------------------
                        eps_scf:                                        3.00E-07
                        eps_scf_history:                                0.00E+00
                        eps_diis:                                       1.00E-01
                        eps_eigval:                                     1.00E-05
                        --------------------------------------------------------
                        level_shift [a.u.]:                             0.000000
                        added MOs                                       100  100
                        --------------------------------------------------------
                        Mixing method:                            BROYDEN_MIXING
                                                charge density mixing in g-space
                        --------------------------------------------------------
                        Smear method:                                FERMI_DIRAC
                        Electronic temperature [K]:                        300.0
                        Electronic temperature [a.u.]:                  9.50E-04
                        Accuracy threshold:                             1.00E-10
                        --------------------------------------------------------
                        Outer loop SCF in use 
                        No variables optimised in outer loop
                        eps_scf                                         1.00E-06
                        max_scf                                              100
                        DIIS optimization
                        DIIS buffer length                                     3
                        step_size                                       5.00E-01

 Spin 1

 Number of electrons:                                                        224
 Number of occupied orbitals:                                                224
 Number of molecular orbitals:                                               324

 Spin 2

 Number of electrons:                                                        224
 Number of occupied orbitals:                                                224
 Number of molecular orbitals:                                               324

 Number of orbital functions:                                               1465
 Number of independent orbital functions:                                   1465

 Extrapolation method: initial_guess


 SCF WAVEFUNCTION OPTIMIZATION

  Step     Update method      Time    Convergence         Total energy    Change
  ------------------------------------------------------------------------------
     1 NoMix/Diag. 0.10E+00    5.1     0.46310962      -631.5188450465 -6.32E+02
     2 Broy./Diag. 0.10E+00    8.1     0.10858425      -610.2310247718  2.13E+01
     3 Broy./Diag. 0.10E+00    9.7     0.15564629      -616.6867745500 -6.46E+00
     4 Broy./Diag. 0.10E+00    8.6     0.37570326      -629.3691016867 -1.27E+01
     5 Broy./Diag. 0.10E+00    8.5     0.02238040      -633.7976888747 -4.43E+00
     6 Broy./Diag. 0.10E+00    9.9     0.48258472      -634.2311749468 -4.33E-01
     7 Broy./Diag. 0.10E+00    8.9     0.06260879      -634.7236965516 -4.93E-01
     8 Broy./Diag. 0.10E+00    9.0     0.04323502      -634.8084331440 -8.47E-02
     9 Broy./Diag. 0.10E+00   10.6     0.30520270      -634.9613259775 -1.53E-01
    10 Broy./Diag. 0.10E+00    9.4     0.31362595      -635.1407806061 -1.79E-01
    11 Broy./Diag. 0.10E+00   11.0     0.02775511      -635.3261055076 -1.85E-01
    12 Broy./Diag. 0.10E+00   11.0     0.06952891      -635.3825853417 -5.65E-02
    13 Broy./Diag. 0.10E+00    9.4     0.01044062      -635.4160651276 -3.35E-02
    14 Broy./Diag. 0.10E+00    9.4     0.16993915      -635.5469576206 -1.31E-01
    15 Broy./Diag. 0.10E+00   10.9     0.11097559      -635.6336169748 -8.67E-02
    16 Broy./Diag. 0.10E+00    9.4     0.02721578      -635.6968604881 -6.32E-02
    17 Broy./Diag. 0.10E+00    9.3     0.00109940      -635.7631359472 -6.63E-02
[...]
   210 Broy./Diag. 0.10E+00  201.0     0.00004836      -683.1537089752  1.08E-06
   211 Broy./Diag. 0.10E+00  178.7     0.00003458      -683.1537086736  3.02E-07
   212 Broy./Diag. 0.10E+00  192.0     0.00002371      -683.1537081202  5.53E-07
   213 Broy./Diag. 0.10E+00  181.5     0.00001607      -683.1537089418 -8.22E-07
   214 Broy./Diag. 0.10E+00  211.4     0.00000743      -683.1537102987 -1.36E-06
   215 Broy./Diag. 0.10E+00  179.3     0.00001916      -683.1537109118 -6.13E-07
   216 Broy./Diag. 0.10E+00  187.7     0.00005466      -683.1537092453  1.67E-06
   217 Broy./Diag. 0.10E+00  198.8     0.00005982      -683.1537099488 -7.04E-07
   218 Broy./Diag. 0.10E+00  221.7     0.00004805      -683.1537091712  7.78E-07
   219 Broy./Diag. 0.10E+00  161.8     0.00002619      -683.1537111496 -1.98E-06
   220 Broy./Diag. 0.10E+00  178.3     0.00001015      -683.1537107416  4.08E-07
   221 Broy./Diag. 0.10E+00  194.0     0.00000731      -683.1537107163  2.53E-08
   222 Broy./Diag. 0.10E+00  174.2     0.00003385      -683.1537107067  9.58E-09
   223 Broy./Diag. 0.10E+00  189.9     0.00003483      -683.1537107442 -3.75E-08
   224 Broy./Diag. 0.10E+00  196.3     0.00000685      -683.1537114568 -7.13E-07
   225 Broy./Diag. 0.10E+00  195.6     0.00002395      -683.1537110233  4.33E-07
   226 Broy./Diag. 0.10E+00  194.6     0.00005661      -683.1537101119  9.11E-07
   227 Broy./Diag. 0.10E+00  172.9     0.00006727      -683.1537102885 -1.77E-07
   228 Broy./Diag. 0.10E+00  188.2     0.00005107      -683.1537090118  1.28E-06
   229 Broy./Diag. 0.10E+00  192.6     0.00003754      -683.1537107336 -1.72E-06
   230 Broy./Diag. 0.10E+00  186.6     0.00002625      -683.1537103930  3.41E-07
   231 Broy./Diag. 0.10E+00  185.4     0.00002571      -683.1537098364  5.57E-07
   232 Broy./Diag. 0.10E+00  215.8     0.00002800      -683.1537096561  1.80E-07
   233 Broy./Diag. 0.10E+00  164.1     0.00003413      -683.1537092973  3.59E-07
   234 Broy./Diag. 0.10E+00  187.7     0.00001559      -683.1537104456 -1.15E-06
   235 Broy./Diag. 0.10E+00  167.2     0.00001218      -683.1537099111  5.35E-07
   236 Broy./Diag. 0.10E+00  184.8     0.00003759      -683.1537101344 -2.23E-07
   237 Broy./Diag. 0.10E+00  179.9     0.00000872      -683.1537102646 -1.30E-07
   238 Broy./Diag. 0.10E+00  166.4     0.00002112      -683.1537100525  2.12E-07
   239 Broy./Diag. 0.10E+00  187.0     0.00002696      -683.1537107936 -7.41E-07
   240 Broy./Diag. 0.10E+00  202.7     0.00004688      -683.1537102877  5.06E-07
   241 Broy./Diag. 0.10E+00  169.3     0.00005328      -683.1537114158 -1.13E-06
   242 Broy./Diag. 0.10E+00  181.1     0.00001680      -683.1537112420  1.74E-07
   243 Broy./Diag. 0.10E+00  194.7     0.00002094      -683.1537114565 -2.15E-07
   244 Broy./Diag. 0.10E+00  175.2     0.00002953      -683.1537110760  3.81E-07
   245 Broy./Diag. 0.10E+00  180.1     0.00001029      -683.1537112307 -1.55E-07
   246 Broy./Diag. 0.10E+00  175.7     0.00002921      -683.1537111647  6.61E-08
   247 Broy./Diag. 0.10E+00  203.0     0.00003048      -683.1537102112  9.53E-07
   248 Broy./Diag. 0.10E+00  161.2     0.00003398      -683.1537108746 -6.63E-07
   249 Broy./Diag. 0.10E+00  189.9     0.00003687      -683.1537105995  2.75E-07
   250 Broy./Diag. 0.10E+00  161.7     0.00003632      -683.1537097572  8.42E-07
   251 Broy./Diag. 0.10E+00  184.6     0.00004281      -683.1537108207 -1.06E-06
   252 Broy./Diag. 0.10E+00  187.0     0.00002320      -683.1537104796  3.41E-07
   253 Broy./Diag. 0.10E+00  184.7     0.00003113      -683.1537105552 -7.55E-08
   254 Broy./Diag. 0.10E+00  188.5     0.00001213      -683.1537105353  1.98E-08
   255 Broy./Diag. 0.10E+00  188.3     0.00002921      -683.1537102853  2.50E-07
   256 Broy./Diag. 0.10E+00  179.6     0.00002026      -683.1537107746 -4.89E-07
   257 Broy./Diag. 0.10E+00  188.8     0.00002203      -683.1537103661  4.09E-07
   258 Broy./Diag. 0.10E+00  199.7     0.00001405      -683.1537112474 -8.81E-07
   259 Broy./Diag. 0.10E+00  164.7     0.00002560      -683.1537108941  3.53E-07
   260 Broy./Diag. 0.10E+00  200.8     0.00005443      -683.1537094984  1.40E-06
   261 Broy./Diag. 0.10E+00  186.5     0.00006384      -683.1537108261 -1.33E-06
   262 Broy./Diag. 0.10E+00  176.0     0.00001561      -683.1537104685  3.58E-07
   263 Broy./Diag. 0.10E+00  191.0     0.00001937      -683.1537105805 -1.12E-07
   264 Broy./Diag. 0.10E+00  167.2     0.00002813      -683.1537103481  2.32E-07
   265 Broy./Diag. 0.10E+00  148.3     0.00003541      -683.1537112667 -9.19E-07
   266 Broy./Diag. 0.10E+00  188.3     0.00001467      -683.1537105401  7.27E-07
   267 Broy./Diag. 0.10E+00  164.7     0.00002619      -683.1537111539 -6.14E-07
   268 Broy./Diag. 0.10E+00  187.4     0.00000854      -683.1537105275  6.26E-07
   269 Broy./Diag. 0.10E+00  195.9     0.00001664      -683.1537107129 -1.85E-07
   270 Broy./Diag. 0.10E+00  171.9     0.00005738      -683.1537099026  8.10E-07
   271 Broy./Diag. 0.10E+00  169.5     0.00005796      -683.1537109416 -1.04E-06
   272 Broy./Diag. 0.10E+00  179.1     0.00001873      -683.1537105901  3.51E-07
   273 Broy./Diag. 0.10E+00  173.9     0.00001317      -683.1537104603  1.30E-07
   274 Broy./Diag. 0.10E+00  202.2     0.00003328      -683.1537098964  5.64E-07
   275 Broy./Diag. 0.10E+00  191.5     0.00002863      -683.1537111143 -1.22E-06
   276 Broy./Diag. 0.10E+00  182.6     0.00001722      -683.1537102323  8.82E-07
   277 Broy./Diag. 0.10E+00  167.9     0.00003190      -683.1537109326 -7.00E-07
   278 Broy./Diag. 0.10E+00  188.8     0.00002005      -683.1537103745  5.58E-07
   279 Broy./Diag. 0.10E+00  181.6     0.00002692      -683.1537103360  3.85E-08
   280 Broy./Diag. 0.10E+00  203.3     0.00004934      -683.1537100759  2.60E-07
   281 Broy./Diag. 0.10E+00  183.3     0.00004949      -683.1537110879 -1.01E-06
   282 Broy./Diag. 0.10E+00  203.6     0.00000331      -683.1537105286  5.59E-07
   283 Broy./Diag. 0.10E+00  176.8     0.00001086      -683.1537105918 -6.32E-08
   284 Broy./Diag. 0.10E+00  195.6     0.00002213      -683.1537105871  4.70E-09
   285 Broy./Diag. 0.10E+00  182.7     0.00001965      -683.1537114477 -8.61E-07
   286 Broy./Diag. 0.10E+00  184.9     0.00002407      -683.1537111335  3.14E-07
   287 Broy./Diag. 0.10E+00  171.7     0.00001813      -683.1537109036  2.30E-07
   288 Broy./Diag. 0.10E+00  194.1     0.00002375      -683.1537108306  7.30E-08
   289 Broy./Diag. 0.10E+00  186.1     0.00002216      -683.1537105781  2.53E-07
   290 Broy./Diag. 0.10E+00  162.5     0.00005383      -683.1537098923  6.86E-07
   291 Broy./Diag. 0.10E+00  192.2     0.00005740      -683.1537110600 -1.17E-06
   292 Broy./Diag. 0.10E+00  204.2     0.00000503      -683.1537106831  3.77E-07
   293 Broy./Diag. 0.10E+00  171.7     0.00000602      -683.1537108004 -1.17E-07
   294 Broy./Diag. 0.10E+00  201.3     0.00001655      -683.1537104705  3.30E-07
   295 Broy./Diag. 0.10E+00  209.6     0.00001643      -683.1537114036 -9.33E-07
   296 Broy./Diag. 0.10E+00  200.1     0.00001112      -683.1537109061  4.97E-07
   297 Broy./Diag. 0.10E+00  221.1     0.00002328      -683.1537105337  3.72E-07
   298 Broy./Diag. 0.10E+00  192.1     0.00000700      -683.1537106661 -1.32E-07
   299 Broy./Diag. 0.10E+00  186.9     0.00000808      -683.1537105404  1.26E-07
   300 Broy./Diag. 0.10E+00  179.9     0.00006733      -683.1537102085  3.32E-07
   301 Broy./Diag. 0.10E+00  159.3     0.00005832      -683.1537120369 -1.83E-06
   302 Broy./Diag. 0.10E+00  191.9     0.00000973      -683.1537117358  3.01E-07
   303 Broy./Diag. 0.10E+00  172.1     0.00001564      -683.1537116658  7.00E-08
   304 Broy./Diag. 0.10E+00  201.7     0.00002399      -683.1537115291  1.37E-07
   305 Broy./Diag. 0.10E+00  175.6     0.00001629      -683.1537123235 -7.94E-07
   306 Broy./Diag. 0.10E+00  198.4     0.00001580      -683.1537120634  2.60E-07
   307 Broy./Diag. 0.10E+00  185.2     0.00003546      -683.1537118244  2.39E-07
   308 Broy./Diag. 0.10E+00  189.7     0.00003407      -683.1537115730  2.51E-07
   309 Broy./Diag. 0.10E+00  185.5     0.00001662      -683.1537115642  8.80E-09
   310 Broy./Diag. 0.10E+00  168.2     0.00005523      -683.1537111246  4.40E-07
   311 Broy./Diag. 0.10E+00  185.2     0.00005296      -683.1537123936 -1.27E-06
   312 Broy./Diag. 0.10E+00  185.8     0.00000235      -683.1537119205  4.73E-07
   313 Broy./Diag. 0.10E+00  198.6     0.00001739      -683.1537118362  8.43E-08
   314 Broy./Diag. 0.10E+00  196.9     0.00002066      -683.1537117425  9.37E-08
   315 Broy./Diag. 0.10E+00  192.3     0.00001726      -683.1537123171 -5.75E-07
   316 Broy./Diag. 0.10E+00  165.8     0.00001366      -683.1537118536  4.63E-07
   317 Broy./Diag. 0.10E+00  182.6     0.00003811      -683.1537117176  1.36E-07
   318 Broy./Diag. 0.10E+00  175.1     0.00004123      -683.1537118038 -8.62E-08
   319 Broy./Diag. 0.10E+00  178.2     0.00000306      -683.1537115168  2.87E-07
   320 Broy./Diag. 0.10E+00  198.1     0.00005714      -683.1537109066  6.10E-07
   321 Broy./Diag. 0.10E+00  193.5     0.00005019      -683.1537122407 -1.33E-06
   322 Broy./Diag. 0.10E+00  176.4     0.00001567      -683.1537120860  1.55E-07
   323 Broy./Diag. 0.10E+00  203.9     0.00001172      -683.1537120165  6.95E-08
   324 Broy./Diag. 0.10E+00  192.5     0.00001290      -683.1537117703  2.46E-07
   325 Broy./Diag. 0.10E+00  214.9     0.00001183      -683.1537124210 -6.51E-07
   326 Broy./Diag. 0.10E+00  171.1     0.00001005      -683.1537120740  3.47E-07
   327 Broy./Diag. 0.10E+00  204.8     0.00003350      -683.1537119766  9.74E-08
   328 Broy./Diag. 0.10E+00  194.7     0.00005415      -683.1537119909 -1.43E-08
   329 Broy./Diag. 0.10E+00  180.4     0.00002751      -683.1537115547  4.36E-07
   330 Broy./Diag. 0.10E+00  175.6     0.00005236      -683.1537111619  3.93E-07
   331 Broy./Diag. 0.10E+00  179.7     0.00005317      -683.1537120502 -8.88E-07
   332 Broy./Diag. 0.10E+00  201.7     0.00001731      -683.1537118445  2.06E-07
   333 Broy./Diag. 0.10E+00  194.5     0.00001624      -683.1537116272  2.17E-07
   334 Broy./Diag. 0.10E+00  178.8     0.00002484      -683.1537111628  4.64E-07
   335 Broy./Diag. 0.10E+00  178.1     0.00002075      -683.1537117571 -5.94E-07
   336 Broy./Diag. 0.10E+00  150.1     0.00000852      -683.1537110724  6.85E-07
   337 Broy./Diag. 0.10E+00  169.1     0.00001609      -683.1537109808  9.16E-08
   338 Broy./Diag. 0.10E+00  175.2     0.00001368      -683.1537104026  5.78E-07
   339 Broy./Diag. 0.10E+00  164.0     0.00001573      -683.1537094480  9.55E-07
   340 Broy./Diag. 0.10E+00  195.7     0.00003722      -683.1537096390 -1.91E-07
   341 Broy./Diag. 0.10E+00  206.5     0.00002915      -683.1537110015 -1.36E-06
   342 Broy./Diag. 0.10E+00  148.5     0.00001682      -683.1537103098  6.92E-07
   343 Broy./Diag. 0.10E+00  174.3     0.00001624      -683.1537101068  2.03E-07
   344 Broy./Diag. 0.10E+00  218.0     0.00004333      -683.1537092481  8.59E-07
   345 Broy./Diag. 0.10E+00  188.3     0.00004977      -683.1537093726 -1.24E-07
   346 Broy./Diag. 0.10E+00  201.7     0.00002772      -683.1537104104 -1.04E-06
   347 Broy./Diag. 0.10E+00  214.5     0.00003389      -683.1537094141  9.96E-07
   348 Broy./Diag. 0.10E+00  198.9     0.00002031      -683.1537087070  7.07E-07
   349 Broy./Diag. 0.10E+00  201.1     0.00003331      -683.1537089935 -2.86E-07
   350 Broy./Diag. 0.10E+00  176.4     0.00006465      -683.1537092693 -2.76E-07
   351 Broy./Diag. 0.10E+00  187.5     0.00006566      -683.1537107035 -1.43E-06
   352 Broy./Diag. 0.10E+00  200.2     0.00001408      -683.1537098636  8.40E-07
   353 Broy./Diag. 0.10E+00  187.5     0.00002341      -683.1537097516  1.12E-07
   354 Broy./Diag. 0.10E+00  185.9     0.00003065      -683.1537095953  1.56E-07
   355 Broy./Diag. 0.10E+00  173.9     0.00004559      -683.1537092427  3.53E-07
   356 Broy./Diag. 0.10E+00  202.1     0.00001196      -683.1537086647  5.78E-07
   357 Broy./Diag. 0.10E+00  190.1     0.00001274      -683.1537083024  3.62E-07
   358 Broy./Diag. 0.10E+00  176.1     0.00000942      -683.1537088157 -5.13E-07
   359 Broy./Diag. 0.10E+00  175.9     0.00000968      -683.1537086115  2.04E-07
   360 Broy./Diag. 0.10E+00  187.7     0.00002678      -683.1537084342  1.77E-07
   361 Broy./Diag. 0.10E+00  214.3     0.00003882      -683.1537086427 -2.09E-07
   362 Broy./Diag. 0.10E+00  208.3     0.00002984      -683.1537087203 -7.75E-08
   363 Broy./Diag. 0.10E+00  199.9     0.00001302      -683.1537091248 -4.05E-07
   364 Broy./Diag. 0.10E+00  208.2     0.00005333      -683.1537094666 -3.42E-07
   365 Broy./Diag. 0.10E+00  177.2     0.00003662      -683.1537088040  6.63E-07
   366 Broy./Diag. 0.10E+00  184.7     0.00002055      -683.1537089599 -1.56E-07
   367 Broy./Diag. 0.10E+00  182.6     0.00001340      -683.1537095617 -6.02E-07
   368 Broy./Diag. 0.10E+00  147.5     0.00000903      -683.1537098207 -2.59E-07
   369 Broy./Diag. 0.10E+00  190.7     0.00003461      -683.1537097645  5.62E-08
   370 Broy./Diag. 0.10E+00  184.8     0.00006506      -683.1537112506 -1.49E-06
   371 Broy./Diag. 0.10E+00  200.3     0.00004519      -683.1537085015  2.75E-06
   372 Broy./Diag. 0.10E+00  195.7     0.00005621      -683.1537085820 -8.05E-08
   373 Broy./Diag. 0.10E+00  213.9     0.00001976      -683.1537094522 -8.70E-07
   374 Broy./Diag. 0.10E+00  199.7     0.00003678      -683.1537092913  1.61E-07
   375 Broy./Diag. 0.10E+00  193.3     0.00002343      -683.1537092711  2.02E-08
   376 Broy./Diag. 0.10E+00  193.3     0.00003987      -683.1537088158  4.55E-07
   377 Broy./Diag. 0.10E+00  175.6     0.00003723      -683.1537089326 -1.17E-07
   378 Broy./Diag. 0.10E+00  179.9     0.00003986      -683.1537100895 -1.16E-06
   379 Broy./Diag. 0.10E+00  187.8     0.00001118      -683.1537101393 -4.98E-08
   380 Broy./Diag. 0.10E+00  210.3     0.00003644      -683.1537100868  5.26E-08
   381 Broy./Diag. 0.10E+00  194.1     0.00003726      -683.1537093212  7.66E-07
   382 Broy./Diag. 0.10E+00  196.7     0.00002192      -683.1537097159 -3.95E-07
   383 Broy./Diag. 0.10E+00  199.5     0.00004182      -683.1537093768  3.39E-07
   384 Broy./Diag. 0.10E+00  218.8     0.00005269      -683.1537090333  3.44E-07
   385 Broy./Diag. 0.10E+00  167.8     0.00002779      -683.1537086035  4.30E-07
   386 Broy./Diag. 0.10E+00  182.7     0.00004125      -683.1537081604  4.43E-07
   387 Broy./Diag. 0.10E+00  209.2     0.00005288      -683.1537082071 -4.67E-08
   388 Broy./Diag. 0.10E+00  177.0     0.00004669      -683.1537099363 -1.73E-06
   389 Broy./Diag. 0.10E+00  178.1     0.00003109      -683.1537094323  5.04E-07
   390 Broy./Diag. 0.10E+00  172.9     0.00002590      -683.1537099822 -5.50E-07
   391 Broy./Diag. 0.10E+00  204.7     0.00001729      -683.1537099416  4.07E-08
   392 Broy./Diag. 0.10E+00  159.5     0.00003859      -683.1537103626 -4.21E-07
   393 Broy./Diag. 0.10E+00  194.6     0.00004899      -683.1537092754  1.09E-06
   394 Broy./Diag. 0.10E+00  165.6     0.00004236      -683.1537092865 -1.11E-08
   395 Broy./Diag. 0.10E+00  195.4     0.00004806      -683.1537105212 -1.23E-06
   396 Broy./Diag. 0.10E+00  187.6     0.00003000      -683.1537104579  6.33E-08
   397 Broy./Diag. 0.10E+00  160.5     0.00003934      -683.1537109028 -4.45E-07
   398 Broy./Diag. 0.10E+00  193.1     0.00002726      -683.1537105527  3.50E-07
   399 Broy./Diag. 0.10E+00  169.9     0.00005556      -683.1537101626  3.90E-07
   400 Broy./Diag. 0.10E+00  208.9     0.00007347      -683.1537102344 -7.18E-08

  Leaving inner SCF loop after reaching   400 steps.


  Electronic density on regular grids:       -456.9999569769        0.0000430231
  Core density on regular grids:              456.9999999996       -0.0000000004
  Total charge density on r-space grids:        0.0000430227
  Total charge density g-space grids:           0.0000430227

  Overlap energy of the core charge distribution:               0.00001865557362
  Self energy of the core charge distribution:              -1590.12737799213005
  Core Hamiltonian energy:                                    494.69506804911714
  Hartree energy:                                             613.73357982516609
  Exchange-correlation energy:                               -201.32390826526964
  Dispersion energy:                                           -0.12325883248128
  Electronic entropic energy:                                  -0.00783154901783
  Fermi energy:                                                -0.14443282166399

  Total energy:                                              -683.15371023437456

  outer SCF iter =   24 RMS gradient =   0.73E-04 energy =       -683.1537102344
     1 Broy./Diag. 0.10E+00  416.3     0.00310277      -683.1536522812  5.80E-05
     2 Broy./Diag. 0.10E+00  169.9     0.00283516      -683.1543774196 -7.25E-04
     3 Broy./Diag. 0.10E+00  194.9     0.00010554      -683.1536995518  6.78E-04
     4 Broy./Diag. 0.10E+00  175.2     0.00035801      -683.1537103897 -1.08E-05
     5 Broy./Diag. 0.10E+00  186.9     0.00005787      -683.1536893407  2.10E-05
     6 Broy./Diag. 0.10E+00  205.1     0.00021887      -683.1536893814 -4.06E-08
     7 Broy./Diag. 0.10E+00  192.4     0.00027324      -683.1536928817 -3.50E-06
     8 Broy./Diag. 0.10E+00  198.2     0.00002210      -683.1536844626  8.42E-06
     9 Broy./Diag. 0.10E+00  217.8     0.00016553      -683.1536833600  1.10E-06
    10 Broy./Diag. 0.10E+00  184.2     0.00024047      -683.1536876854 -4.33E-06
    11 Broy./Diag. 0.10E+00  184.3     0.00085307      -683.1536808243  6.86E-06
    12 Broy./Diag. 0.10E+00  178.9     0.00011512      -683.1537028629 -2.20E-05
    13 Broy./Diag. 0.10E+00  216.8     0.00011663      -683.1536988300  4.03E-06
    14 Broy./Diag. 0.10E+00  172.5     0.00014498      -683.1537072034 -8.37E-06
    15 Broy./Diag. 0.10E+00  160.4     0.00009696      -683.1537102239 -3.02E-06
    16 Broy./Diag. 0.10E+00  206.4     0.00022208      -683.1537059532  4.27E-06
    17 Broy./Diag. 0.10E+00  168.7     0.00004563      -683.1537075487 -1.60E-06
    18 Broy./Diag. 0.10E+00  199.0     0.00008985      -683.1537091335 -1.58E-06
    19 Broy./Diag. 0.10E+00  197.6     0.00014833      -683.1537047312  4.40E-06
    20 Broy./Diag. 0.10E+00  170.5     0.00007712      -683.1537104859 -5.75E-06
    21 Broy./Diag. 0.10E+00  172.0     0.00006298      -683.1537071218  3.36E-06
    22 Broy./Diag. 0.10E+00  185.3     0.00006467      -683.1537083412 -1.22E-06
    23 Broy./Diag. 0.10E+00  193.3     0.00005348      -683.1537099761 -1.63E-06
    24 Broy./Diag. 0.10E+00  192.6     0.00007870      -683.1537095206  4.56E-07
    25 Broy./Diag. 0.10E+00  163.7     0.00002730      -683.1537114573 -1.94E-06
    26 Broy./Diag. 0.10E+00  206.0     0.00007577      -683.1537102768  1.18E-06
    27 Broy./Diag. 0.10E+00  182.5     0.00003391      -683.1537121514 -1.87E-06
    28 Broy./Diag. 0.10E+00  187.4     0.00011606      -683.1537084164  3.74E-06
    29 Broy./Diag. 0.10E+00  185.0     0.00007302      -683.1537139301 -5.51E-06
    30 Broy./Diag. 0.10E+00  192.8     0.00004582      -683.1537118095  2.12E-06
    31 Broy./Diag. 0.10E+00  194.3     0.00003057      -683.1537137483 -1.94E-06
    32 Broy./Diag. 0.10E+00  175.5     0.00001782      -683.1537124856  1.26E-06
    33 Broy./Diag. 0.10E+00  170.3     0.00005347      -683.1537116928  7.93E-07
    34 Broy./Diag. 0.10E+00  195.3     0.00004923      -683.1537114394  2.53E-07
    35 Broy./Diag. 0.10E+00  179.6     0.00002670      -683.1537129214 -1.48E-06
    36 Broy./Diag. 0.10E+00  206.5     0.00003303      -683.1537124591  4.62E-07
    37 Broy./Diag. 0.10E+00  185.6     0.00005113      -683.1537132391 -7.80E-07
    38 Broy./Diag. 0.10E+00  191.7     0.00004510      -683.1537118833  1.36E-06
    39 Broy./Diag. 0.10E+00  179.8     0.00005649      -683.1537151099 -3.23E-06
    40 Broy./Diag. 0.10E+00  158.0     0.00006631      -683.1537157680 -6.58E-07
    41 Broy./Diag. 0.10E+00  191.4     0.00003312      -683.1537140935  1.67E-06
