 DBCSR| Multiplication driver                                               XSMM
 DBCSR| Multrec recursion limit                                              512
 DBCSR| Multiplication stack size                                           1000
 DBCSR| Maximum elements for images                                    UNLIMITED
 DBCSR| Multiplicative factor virtual images                                   1
 DBCSR| Multiplication size stacks                                             3
 DBCSR| Number of 3D layers                                               SINGLE
 DBCSR| Use MPI memory allocation                                              T
 DBCSR| Use RMA algorithm                                                      F
 DBCSR| Use Communication thread                                               T
 DBCSR| Communication thread load                                             87


  **** **** ******  **  PROGRAM STARTED AT               2024-07-26 15:21:22.780
 ***** ** ***  *** **   PROGRAM STARTED ON                            sebnode133
 **    ****   ******    PROGRAM STARTED BY                                luehrs
 ***** **    ** ** **   PROGRAM PROCESS ID                                271567
  **** **  *******  **  PROGRAM STARTED IN /home/luehrs/PhD/Sodium_batteries/Sod
                                           ium-graphene-edge/Zig_zag_3/No_hydrog
                                           en

 CP2K| version string:                    CP2K version 7.0 (Development Version)
 CP2K| source code revision number:                                             
 CP2K| cp2kflags: libint fftw3 libxc parallel mpi3 scalapack xsmm libderiv_max_a
 CP2K|            m1=8 libint_max_am=9 max_contr=4
 CP2K| is freely available from                            https://www.cp2k.org/
 CP2K| Program compiled at                         Sun Jun 24 14:37:16 CEST 2018
 CP2K| Program compiled on                                            sebstorage
 CP2K| Program compiled for                                Linux-x86-64-gfortran
 CP2K| Data directory path    /home/brehm/Software_Batchnode/2018/Source/cp2k_18
 CP2K| Input file name                                         input.zig-zag.inp

 GLOBAL| Force Environment number                                              1
 GLOBAL| Basis set file name                                      ./BASIS_MOLOPT
 GLOBAL| Potential file name                                    ./GTH_POTENTIALS
 GLOBAL| MM Potential file name                                     MM_POTENTIAL
 GLOBAL| Coordinate file name           graphene_no_hydrogen_zig-zag_relaxed.xyz
 GLOBAL| Method name                                                        CP2K
 GLOBAL| Project name                                      graphene_zig_zag_BSSE
 GLOBAL| Preferred FFT library                                             FFTW3
 GLOBAL| Preferred diagonalization lib.                                       SL
 GLOBAL| Run type                                                           BSSE
 GLOBAL| All-to-all communication in single precision                          F
 GLOBAL| FFTs using library dependent lengths                                  F
 GLOBAL| Global print level                                                  LOW
 GLOBAL| Total number of message passing processes                            16
 GLOBAL| Number of threads for this process                                    1
 GLOBAL| This output is from process                                           0
 GLOBAL| CPU model name :  AMD EPYC 7513 32-Core Processor

 MEMORY| system memory details [Kb]
 MEMORY|                        rank 0           min           max       average
 MEMORY| MemTotal            131897348     131897348     131897348     131897348
 MEMORY| MemFree              34192144      34192144      34192144      34192144
 MEMORY| Buffers                122484        122484        122484        122484
 MEMORY| Cached               26937048      26937048      26937048      26937048
 MEMORY| Slab                  3378044       3378044       3378044       3378044
 MEMORY| SReclaimable          2545484       2545484       2545484       2545484
 MEMORY| MemLikelyFree        63797160      63797160      63797160      63797160


 GENERATE|  Preliminary Number of Bonds generated:                             0
 GENERATE|  Achieved consistency in connectivity generation.

 *******************************************************************************
 *******************************************************************************
 **                                                                           **
 **     #####                         ##              ##                      **
 **    ##   ##            ##          ##              ##                      **
 **   ##     ##                       ##            ######                    **
 **   ##     ##  ##   ##  ##   #####  ##  ##   ####   ##    #####    #####    **
 **   ##     ##  ##   ##  ##  ##      ## ##   ##      ##   ##   ##  ##   ##   **
 **   ##  ## ##  ##   ##  ##  ##      ####     ###    ##   ######   ######    **
 **    ##  ###   ##   ##  ##  ##      ## ##      ##   ##   ##       ##        **
 **     #######   #####   ##   #####  ##  ##  ####    ##    #####   ##        **
 **           ##                                                    ##        **
 **                                                                           **
 **                                                ... make the atoms dance   **
 **                                                                           **
 **            Copyright (C) by CP2K developers group (2000 - 2018)           **
 **                                                                           **
 *******************************************************************************


 TOTAL NUMBERS AND MAXIMUM NUMBERS

  Total number of            - Atomic kinds:                                   2
                             - Atoms:                                        113
                             - Shell sets:                                   113
                             - Shells:                                       565
                             - Primitive Cartesian functions:                567
                             - Cartesian basis functions:                   1577
                             - Spherical basis functions:                   1465

  Maximum angular momentum of- Orbital basis functions:                        2
                             - Local part of the GTH pseudopotential:          2
                             - Non-local part of the GTH pseudopotential:      1


 SCF PARAMETERS         Density guess:                                    ATOMIC
                        --------------------------------------------------------
                        max_scf:                                             400
                        max_scf_history:                                       0
                        max_diis:                                              4
                        --------------------------------------------------------
                        eps_scf:                                        3.00E-07
                        eps_scf_history:                                0.00E+00
                        eps_diis:                                       1.00E-01
                        eps_eigval:                                     1.00E-05
                        --------------------------------------------------------
                        level_shift [a.u.]:                                 0.00
                        added MOs                                       100  100
                        --------------------------------------------------------
                        Mixing method:                            BROYDEN_MIXING
                                                charge density mixing in g-space
                        --------------------------------------------------------
                        Smear method:                                FERMI_DIRAC
                        Electronic temperature [K]:                        300.0
                        Electronic temperature [a.u.]:                  9.50E-04
                        Accuracy threshold:                             1.00E-10
                        --------------------------------------------------------
                        Outer loop SCF in use 
                        No variables optimised in outer loop
                        eps_scf                                         1.00E-06
                        max_scf                                              100
                        DIIS optimization
                        DIIS buffer length                                     3
                        step_size                                       5.00E-01

 -------------------------------------------------------------------------------
 -                                                                             -
 -  BSSE CALCULATION         FRAGMENT CONF: 10        FRAGMENT SUBCONF: 10     -
 -                           CHARGE =     0           MULTIPLICITY =     0     -
 -                                                                             -
 -                 ATOM INDEX                              ATOM NAME           -
 -                 ----------                              ---------           -
 -                      1                                   C                  -
 -                      2                                   C                  -
 -                      3                                   C                  -
 -                      4                                   C                  -
 -                      5                                   C                  -
 -                      6                                   C                  -
 -                      7                                   C                  -
 -                      8                                   C                  -
 -                      9                                   C                  -
 -                     10                                   C                  -
 -                     11                                   C                  -
 -                     12                                   C                  -
 -                     13                                   C                  -
 -                     14                                   C                  -
 -                     15                                   C                  -
 -                     16                                   C                  -
 -                     17                                   C                  -
 -                     18                                   C                  -
 -                     19                                   C                  -
 -                     20                                   C                  -
 -                     21                                   C                  -
 -                     22                                   C                  -
 -                     23                                   C                  -
 -                     24                                   C                  -
 -                     25                                   C                  -
 -                     26                                   C                  -
 -                     27                                   C                  -
 -                     28                                   C                  -
 -                     29                                   C                  -
 -                     30                                   C                  -
 -                     31                                   C                  -
 -                     32                                   C                  -
 -                     33                                   C                  -
 -                     34                                   C                  -
 -                     35                                   C                  -
 -                     36                                   C                  -
 -                     37                                   C                  -
 -                     38                                   C                  -
 -                     39                                   C                  -
 -                     40                                   C                  -
 -                     41                                   C                  -
 -                     42                                   C                  -
 -                     43                                   C                  -
 -                     44                                   C                  -
 -                     45                                   C                  -
 -                     46                                   C                  -
 -                     47                                   C                  -
 -                     48                                   C                  -
 -                     49                                   C                  -
 -                     50                                   C                  -
 -                     51                                   C                  -
 -                     52                                   C                  -
 -                     53                                   C                  -
 -                     54                                   C                  -
 -                     55                                   C                  -
 -                     56                                   C                  -
 -                     57                                   C                  -
 -                     58                                   C                  -
 -                     59                                   C                  -
 -                     60                                   C                  -
 -                     61                                   C                  -
 -                     62                                   C                  -
 -                     63                                   C                  -
 -                     64                                   C                  -
 -                     65                                   C                  -
 -                     66                                   C                  -
 -                     67                                   C                  -
 -                     68                                   C                  -
 -                     69                                   C                  -
 -                     70                                   C                  -
 -                     71                                   C                  -
 -                     72                                   C                  -
 -                     73                                   C                  -
 -                     74                                   C                  -
 -                     75                                   C                  -
 -                     76                                   C                  -
 -                     77                                   C                  -
 -                     78                                   C                  -
 -                     79                                   C                  -
 -                     80                                   C                  -
 -                     81                                   C                  -
 -                     82                                   C                  -
 -                     83                                   C                  -
 -                     84                                   C                  -
 -                     85                                   C                  -
 -                     86                                   C                  -
 -                     87                                   C                  -
 -                     88                                   C                  -
 -                     89                                   C                  -
 -                     90                                   C                  -
 -                     91                                   C                  -
 -                     92                                   C                  -
 -                     93                                   C                  -
 -                     94                                   C                  -
 -                     95                                   C                  -
 -                     96                                   C                  -
 -                     97                                   C                  -
 -                     98                                   C                  -
 -                     99                                   C                  -
 -                    100                                   C                  -
 -                    101                                   C                  -
 -                    102                                   C                  -
 -                    103                                   C                  -
 -                    104                                   C                  -
 -                    105                                   C                  -
 -                    106                                   C                  -
 -                    107                                   C                  -
 -                    108                                   C                  -
 -                    109                                   C                  -
 -                    110                                   C                  -
 -                    111                                   C                  -
 -                    112                                   C                  -
 -------------------------------------------------------------------------------

 *******************************************************************************
 *******************************************************************************
 **                                                                           **
 **     #####                         ##              ##                      **
 **    ##   ##            ##          ##              ##                      **
 **   ##     ##                       ##            ######                    **
 **   ##     ##  ##   ##  ##   #####  ##  ##   ####   ##    #####    #####    **
 **   ##     ##  ##   ##  ##  ##      ## ##   ##      ##   ##   ##  ##   ##   **
 **   ##  ## ##  ##   ##  ##  ##      ####     ###    ##   ######   ######    **
 **    ##  ###   ##   ##  ##  ##      ## ##      ##   ##   ##       ##        **
 **     #######   #####   ##   #####  ##  ##  ####    ##    #####   ##        **
 **           ##                                                    ##        **
 **                                                                           **
 **                                                ... make the atoms dance   **
 **                                                                           **
 **            Copyright (C) by CP2K developers group (2000 - 2018)           **
 **                                                                           **
 *******************************************************************************


 TOTAL NUMBERS AND MAXIMUM NUMBERS

  Total number of            - Atomic kinds:                                   1
                             - Atoms:                                        112
                             - Shell sets:                                   112
                             - Shells:                                       560
                             - Primitive Cartesian functions:                560
                             - Cartesian basis functions:                   1568
                             - Spherical basis functions:                   1456

  Maximum angular momentum of- Orbital basis functions:                        2
                             - Local part of the GTH pseudopotential:          2
                             - Non-local part of the GTH pseudopotential:      0


 SCF PARAMETERS         Density guess:                                    ATOMIC
                        --------------------------------------------------------
                        max_scf:                                             400
                        max_scf_history:                                       0
                        max_diis:                                              4
                        --------------------------------------------------------
                        eps_scf:                                        3.00E-07
                        eps_scf_history:                                0.00E+00
                        eps_diis:                                       1.00E-01
                        eps_eigval:                                     1.00E-05
                        --------------------------------------------------------
                        level_shift [a.u.]:                                 0.00
                        added MOs                                       100  100
                        --------------------------------------------------------
                        Mixing method:                            BROYDEN_MIXING
                                                charge density mixing in g-space
                        --------------------------------------------------------
                        Smear method:                                FERMI_DIRAC
                        Electronic temperature [K]:                        300.0
                        Electronic temperature [a.u.]:                  9.50E-04
                        Accuracy threshold:                             1.00E-10
                        --------------------------------------------------------
                        Outer loop SCF in use 
                        No variables optimised in outer loop
                        eps_scf                                         1.00E-06
                        max_scf                                              100
                        DIIS optimization
                        DIIS buffer length                                     3
                        step_size                                       5.00E-01

 Spin 1

 Number of electrons:                                                        224
 Number of occupied orbitals:                                                224
 Number of molecular orbitals:                                               324

 Spin 2

 Number of electrons:                                                        224
 Number of occupied orbitals:                                                224
 Number of molecular orbitals:                                               324

 Number of orbital functions:                                               1456
 Number of independent orbital functions:                                   1456

 Extrapolation method: initial_guess


 SCF WAVEFUNCTION OPTIMIZATION

  Step     Update method      Time    Convergence         Total energy    Change
  ------------------------------------------------------------------------------
     1 NoMix/Diag. 0.10E+00    3.3     0.45131248      -627.8926975268 -6.28E+02
     2 Broy./Diag. 0.10E+00    6.3     0.08614265      -603.5106157260  2.44E+01
     3 Broy./Diag. 0.10E+00    6.5     0.13634700      -612.0300453973 -8.52E+00
     4 Broy./Diag. 0.10E+00    6.6     7.44361018      -625.7649932678 -1.37E+01
     5 Broy./Diag. 0.10E+00    6.6     7.44356965      -607.4243106701  1.83E+01
     6 Broy./Diag. 0.10E+00    6.5     0.42291860      -629.8082373170 -2.24E+01
     7 Broy./Diag. 0.10E+00    6.8     0.14390238      -630.8803955662 -1.07E+00
     8 Broy./Diag. 0.10E+00    6.9     7.60663438      -631.3389361823 -4.59E-01
     9 Broy./Diag. 0.10E+00    7.1     7.60663188      -586.2429948662  4.51E+01
    10 Broy./Diag. 0.10E+00    7.4     7.58840455      -631.4503849681 -4.52E+01
    11 Broy./Diag. 0.10E+00    7.3     7.58840246      -557.2568048939  7.42E+01
    12 Broy./Diag. 0.10E+00    7.2     7.61165022      -631.6120593913 -7.44E+01
    13 Broy./Diag. 0.10E+00    7.3     7.61164756      -562.0642590756  6.95E+01
    14 Broy./Diag. 0.10E+00    7.3     0.12007836      -631.7812572093 -6.97E+01
    15 Broy./Diag. 0.10E+00    7.2     0.09705705      -631.5648013505  2.16E-01
    16 Broy./Diag. 0.10E+00    7.3     7.55373384      -631.8936442045 -3.29E-01
    17 Broy./Diag. 0.10E+00    7.3     7.55431889      -587.0252711570  4.49E+01
    18 Broy./Diag. 0.10E+00    7.3     7.48413873      -631.8956312279 -4.49E+01
    19 Broy./Diag. 0.10E+00    7.3     7.48679964      -609.4022731006  2.25E+01
    20 Broy./Diag. 0.10E+00    7.2     7.64456453      -631.9234738296 -2.25E+01
    21 Broy./Diag. 0.10E+00    7.3     7.64456266      -608.7044259626  2.32E+01
    22 Broy./Diag. 0.10E+00    7.3     0.06033872      -631.8516660293 -2.31E+01
    23 Broy./Diag. 0.10E+00    7.3     0.00974674      -631.9537456845 -1.02E-01
    24 Broy./Diag. 0.10E+00    7.3     0.02870899      -631.9417772211  1.20E-02
    25 Broy./Diag. 0.10E+00    7.3     0.01815318      -631.9651851439 -2.34E-02
    26 Broy./Diag. 0.10E+00    7.3     0.01384664      -632.1471405540 -1.82E-01
    27 Broy./Diag. 0.10E+00    7.2     0.00768572      -632.1900416493 -4.29E-02
    28 Broy./Diag. 0.10E+00    7.2     0.00752241      -632.2371527976 -4.71E-02
    29 Broy./Diag. 0.10E+00    7.3     0.00670130      -632.2625639868 -2.54E-02
    30 Broy./Diag. 0.10E+00    7.2     0.00626961      -632.3318807264 -6.93E-02
    31 Broy./Diag. 0.10E+00    7.3     0.00795541      -632.4022328267 -7.04E-02
    32 Broy./Diag. 0.10E+00    7.3     0.00623097      -632.4394982037 -3.73E-02
    33 Broy./Diag. 0.10E+00    7.3     0.00377730      -632.4555305815 -1.60E-02
    34 Broy./Diag. 0.10E+00    7.4     0.00602723      -632.4650516189 -9.52E-03
    35 Broy./Diag. 0.10E+00    7.3     0.01043448      -632.4797383491 -1.47E-02
    36 Broy./Diag. 0.10E+00    7.4     0.01410466      -632.4864526293 -6.71E-03
    37 Broy./Diag. 0.10E+00    7.3     0.01080945      -632.5030540304 -1.66E-02
    38 Broy./Diag. 0.10E+00    7.3     0.01386853      -632.5060036758 -2.95E-03
    39 Broy./Diag. 0.10E+00    7.3     0.00451680      -632.5178883348 -1.19E-02
    40 Broy./Diag. 0.10E+00    7.3     0.00651110      -632.5294154126 -1.15E-02
    41 Broy./Diag. 0.10E+00    7.3     0.00697350      -632.5218647027  7.55E-03
    42 Broy./Diag. 0.10E+00    7.2     0.00590810      -632.5256941782 -3.83E-03
    43 Broy./Diag. 0.10E+00    7.2     0.00444705      -632.5203485749  5.35E-03
    44 Broy./Diag. 0.10E+00    7.1     0.00787287      -632.5256763899 -5.33E-03
    45 Broy./Diag. 0.10E+00    7.1     0.00794432      -632.5177690160  7.91E-03
    46 Broy./Diag. 0.10E+00    7.1     0.00376473      -632.5208488283 -3.08E-03
    47 Broy./Diag. 0.10E+00    7.3     0.00277770      -632.5214557040 -6.07E-04
    48 Broy./Diag. 0.10E+00    7.1     0.00749842      -632.5175356827  3.92E-03
    49 Broy./Diag. 0.10E+00    7.2     0.00744508      -632.5247982915 -7.26E-03
    50 Broy./Diag. 0.10E+00    7.2     0.00188968      -632.5223594909  2.44E-03
    51 Broy./Diag. 0.10E+00    7.2     0.00205091      -632.5233541710 -9.95E-04
    52 Broy./Diag. 0.10E+00    7.1     0.00229043      -632.5245603087 -1.21E-03
    53 Broy./Diag. 0.10E+00    7.2     0.00111679      -632.5264878356 -1.93E-03
    54 Broy./Diag. 0.10E+00    7.1     0.00133530      -632.5287477272 -2.26E-03
    55 Broy./Diag. 0.10E+00    7.2     0.00202130      -632.5360969643 -7.35E-03
    56 Broy./Diag. 0.10E+00    7.2     0.00193297      -632.5412524599 -5.16E-03
    57 Broy./Diag. 0.10E+00    7.3     0.00106645      -632.5437406212 -2.49E-03
    58 Broy./Diag. 0.10E+00    7.2     0.00197224      -632.5461354850 -2.39E-03
    59 Broy./Diag. 0.10E+00    7.1     0.00407281      -632.5482486579 -2.11E-03
    60 Broy./Diag. 0.10E+00    7.1     0.00172594      -632.5491793800 -9.31E-04
    61 Broy./Diag. 0.10E+00    7.2     0.00099349      -632.5528003690 -3.62E-03
    62 Broy./Diag. 0.10E+00    7.1     0.00053827      -632.5545090201 -1.71E-03
    63 Broy./Diag. 0.10E+00    7.2     0.00056247      -632.5595951852 -5.09E-03
    64 Broy./Diag. 0.10E+00    7.2     0.00029057      -632.5605205160 -9.25E-04
    65 Broy./Diag. 0.10E+00    7.3     0.00043305      -632.5609228236 -4.02E-04
    66 Broy./Diag. 0.10E+00    7.2     0.00061126      -632.5614250621 -5.02E-04
    67 Broy./Diag. 0.10E+00    7.2     0.00048511      -632.5619595016 -5.34E-04
    68 Broy./Diag. 0.10E+00    7.2     0.00085484      -632.5631603647 -1.20E-03
    69 Broy./Diag. 0.10E+00    7.2     0.00019964      -632.5638149261 -6.55E-04
    70 Broy./Diag. 0.10E+00    7.2     0.00013275      -632.5649753466 -1.16E-03
    71 Broy./Diag. 0.10E+00    7.2     0.00010873      -632.5657225665 -7.47E-04
    72 Broy./Diag. 0.10E+00    7.2     0.00010218      -632.5664756634 -7.53E-04
    73 Broy./Diag. 0.10E+00    7.2     0.00009787      -632.5665118174 -3.62E-05
    74 Broy./Diag. 0.10E+00    7.2     0.00016042      -632.5654879670  1.02E-03
    75 Broy./Diag. 0.10E+00    6.9     0.00009606      -632.5648528630  6.35E-04
    76 Broy./Diag. 0.10E+00    8.1     0.00006622      -632.5650381549 -1.85E-04
    77 Broy./Diag. 0.10E+00    8.1     0.00011139      -632.5654907251 -4.53E-04
    78 Broy./Diag. 0.10E+00    8.3     0.00004174      -632.5666508100 -1.16E-03
    79 Broy./Diag. 0.10E+00    8.1     0.00007686      -632.5679937468 -1.34E-03
    80 Broy./Diag. 0.10E+00    8.2     0.00002811      -632.5685036807 -5.10E-04
    81 Broy./Diag. 0.10E+00    8.3     0.00003607      -632.5691238093 -6.20E-04
    82 Broy./Diag. 0.10E+00    8.2     0.00001903      -632.5694555766 -3.32E-04
    83 Broy./Diag. 0.10E+00    8.3     0.00003371      -632.5694816194 -2.60E-05
    84 Broy./Diag. 0.10E+00    8.3     0.00001174      -632.5695900856 -1.08E-04
    85 Broy./Diag. 0.10E+00    8.1     0.00001903      -632.5696159899 -2.59E-05
    86 Broy./Diag. 0.10E+00    8.3     0.00001536      -632.5696405180 -2.45E-05
    87 Broy./Diag. 0.10E+00    8.2     0.00000587      -632.5696138958  2.66E-05
    88 Broy./Diag. 0.10E+00    8.2     0.00001710      -632.5694423711  1.72E-04
    89 Broy./Diag. 0.10E+00    8.3     0.00001224      -632.5693295549  1.13E-04
    90 Broy./Diag. 0.10E+00    8.2     0.00000647      -632.5693164948  1.31E-05
    91 Broy./Diag. 0.10E+00    8.3     0.00000859      -632.5693305690 -1.41E-05
    92 Broy./Diag. 0.10E+00    8.2     0.00000628      -632.5693774361 -4.69E-05
    93 Broy./Diag. 0.10E+00    8.2     0.00000446      -632.5694522556 -7.48E-05
    94 Broy./Diag. 0.10E+00    8.1     0.00000631      -632.5694913237 -3.91E-05
    95 Broy./Diag. 0.10E+00    8.2     0.00000563      -632.5695268469 -3.55E-05
    96 Broy./Diag. 0.10E+00    8.3     0.00000525      -632.5695633214 -3.65E-05
    97 Broy./Diag. 0.10E+00    8.4     0.00000324      -632.5696179295 -5.46E-05
    98 Broy./Diag. 0.10E+00    8.2     0.00000621      -632.5696610356 -4.31E-05
    99 Broy./Diag. 0.10E+00    8.3     0.00000592      -632.5696765541 -1.55E-05
   100 Broy./Diag. 0.10E+00    8.1     0.00000407      -632.5696916649 -1.51E-05
   101 Broy./Diag. 0.10E+00    8.1     0.00000517      -632.5697047816 -1.31E-05
   102 Broy./Diag. 0.10E+00    8.2     0.00000529      -632.5697194033 -1.46E-05
   103 Broy./Diag. 0.10E+00    8.1     0.00000938      -632.5697243618 -4.96E-06
   104 Broy./Diag. 0.10E+00    8.2     0.00000675      -632.5697225998  1.76E-06
   105 Broy./Diag. 0.10E+00    8.1     0.00000716      -632.5697198081  2.79E-06
   106 Broy./Diag. 0.10E+00    8.2     0.00000252      -632.5697106246  9.18E-06
   107 Broy./Diag. 0.10E+00    8.3     0.00000238      -632.5697034732  7.15E-06
   108 Broy./Diag. 0.10E+00    8.1     0.00000274      -632.5696962193  7.25E-06
   109 Broy./Diag. 0.10E+00    8.2     0.00000875      -632.5696896250  6.59E-06
   110 Broy./Diag. 0.10E+00    8.2     0.00001059      -632.5696887020  9.23E-07
   111 Broy./Diag. 0.10E+00    8.2     0.00000174      -632.5696860129  2.69E-06
   112 Broy./Diag. 0.10E+00    8.3     0.00000450      -632.5696857067  3.06E-07
   113 Broy./Diag. 0.10E+00    8.3     0.00000330      -632.5696856569  4.99E-08
   114 Broy./Diag. 0.10E+00    8.2     0.00000149      -632.5696870880 -1.43E-06
   115 Broy./Diag. 0.10E+00    8.3     0.00000357      -632.5696900517 -2.96E-06
   116 Broy./Diag. 0.10E+00    8.2     0.00000255      -632.5696925951 -2.54E-06
   117 Broy./Diag. 0.10E+00    8.3     0.00000314      -632.5696950022 -2.41E-06
   118 Broy./Diag. 0.10E+00    8.2     0.00000282      -632.5697015365 -6.53E-06
   119 Broy./Diag. 0.10E+00    8.2     0.00000356      -632.5697054675 -3.93E-06
   120 Broy./Diag. 0.10E+00    8.4     0.00000269      -632.5697080446 -2.58E-06
   121 Broy./Diag. 0.10E+00    8.2     0.00000229      -632.5697096270 -1.58E-06
   122 Broy./Diag. 0.10E+00    8.2     0.00000173      -632.5697118803 -2.25E-06
   123 Broy./Diag. 0.10E+00    8.3     0.00000232      -632.5697152332 -3.35E-06
   124 Broy./Diag. 0.10E+00    8.1     0.00000184      -632.5697177485 -2.52E-06
   125 Broy./Diag. 0.10E+00    8.4     0.00000109      -632.5697201502 -2.40E-06
   126 Broy./Diag. 0.10E+00    8.3     0.00000453      -632.5697234080 -3.26E-06
   127 Broy./Diag. 0.10E+00    8.3     0.00000174      -632.5697279823 -4.57E-06
   128 Broy./Diag. 0.10E+00    8.3     0.00000121      -632.5697286713 -6.89E-07
   129 Broy./Diag. 0.10E+00    8.4     0.00000128      -632.5697298893 -1.22E-06
   130 Broy./Diag. 0.10E+00    8.1     0.00000106      -632.5697316558 -1.77E-06
   131 Broy./Diag. 0.10E+00    8.2     0.00000196      -632.5697324313 -7.76E-07
   132 Broy./Diag. 0.10E+00    8.3     0.00000367      -632.5697332700 -8.39E-07
   133 Broy./Diag. 0.10E+00    8.3     0.00000187      -632.5697354624 -2.19E-06
   134 Broy./Diag. 0.10E+00    8.3     0.00001042      -632.5697361173 -6.55E-07
   135 Broy./Diag. 0.10E+00    8.2     0.00000952      -632.5697362927 -1.75E-07
   136 Broy./Diag. 0.10E+00    8.3     0.00000567      -632.5697338308  2.46E-06
   137 Broy./Diag. 0.10E+00    8.3     0.00000075      -632.5697346571 -8.26E-07
   138 Broy./Diag. 0.10E+00    8.2     0.00000083      -632.5697351024 -4.45E-07
   139 Broy./Diag. 0.10E+00    8.3     0.00000196      -632.5697353580 -2.56E-07
   140 Broy./Diag. 0.10E+00    8.2     0.00000198      -632.5697362795 -9.21E-07
   141 Broy./Diag. 0.10E+00    7.2     0.00000093      -632.5697376678 -1.39E-06
   142 Broy./Diag. 0.10E+00    7.0     0.00000232      -632.5697382138 -5.46E-07
   143 Broy./Diag. 0.10E+00    6.8     0.00000270      -632.5697397073 -1.49E-06
   144 Broy./Diag. 0.10E+00    6.6     0.00000098      -632.5697399690 -2.62E-07
   145 Broy./Diag. 0.10E+00    7.2     0.00000197      -632.5697399111  5.79E-08
   146 Broy./Diag. 0.10E+00    7.3     0.00000120      -632.5697385337  1.38E-06
   147 Broy./Diag. 0.10E+00    7.5     0.00000136      -632.5697386464 -1.13E-07
   148 Broy./Diag. 0.10E+00    7.6     0.00000174      -632.5697380348  6.12E-07
   149 Broy./Diag. 0.10E+00    7.8     0.00000113      -632.5697386067 -5.72E-07
   150 Broy./Diag. 0.10E+00    7.8     0.00000103      -632.5697384854  1.21E-07
   151 Broy./Diag. 0.10E+00    7.9     0.00000094      -632.5697387306 -2.45E-07
   152 Broy./Diag. 0.10E+00    7.9     0.00000129      -632.5697388488 -1.18E-07
   153 Broy./Diag. 0.10E+00    7.9     0.00000095      -632.5697393632 -5.14E-07
   154 Broy./Diag. 0.10E+00    7.8     0.00000108      -632.5697392359  1.27E-07
   155 Broy./Diag. 0.10E+00    7.8     0.00000103      -632.5697389741  2.62E-07
   156 Broy./Diag. 0.10E+00    7.9     0.00000080      -632.5697390037 -2.97E-08
   157 Broy./Diag. 0.10E+00    8.0     0.00000158      -632.5697388663  1.37E-07
   158 Broy./Diag. 0.10E+00    7.8     0.00000167      -632.5697392864 -4.20E-07
   159 Broy./Diag. 0.10E+00    7.9     0.00000052      -632.5697393217 -3.53E-08
   160 Broy./Diag. 0.10E+00    7.8     0.00000097      -632.5697393440 -2.24E-08
   161 Broy./Diag. 0.10E+00    7.8     0.00000086      -632.5697394169 -7.28E-08
   162 Broy./Diag. 0.10E+00    7.9     0.00000124      -632.5697393919  2.50E-08
   163 Broy./Diag. 0.10E+00    7.8     0.00000140      -632.5697396097 -2.18E-07
   164 Broy./Diag. 0.10E+00    7.9     0.00000226      -632.5697396206 -1.09E-08
   165 Broy./Diag. 0.10E+00    7.8     0.00000095      -632.5697398335 -2.13E-07
   166 Broy./Diag. 0.10E+00    7.8     0.00000128      -632.5697399071 -7.36E-08
   167 Broy./Diag. 0.10E+00    7.8     0.00000176      -632.5697400175 -1.10E-07
   168 Broy./Diag. 0.10E+00    7.8     0.00000134      -632.5697399883  2.92E-08
   169 Broy./Diag. 0.10E+00    7.8     0.00000121      -632.5697399616  2.67E-08
   170 Broy./Diag. 0.10E+00    7.8     0.00000137      -632.5697400550 -9.34E-08
   171 Broy./Diag. 0.10E+00    7.8     0.00000090      -632.5697398876  1.67E-07
   172 Broy./Diag. 0.10E+00    7.8     0.00000065      -632.5697398825  5.07E-09
   173 Broy./Diag. 0.10E+00    7.8     0.00000101      -632.5697398690  1.34E-08
   174 Broy./Diag. 0.10E+00    7.8     0.00000321      -632.5697398938 -2.47E-08
   175 Broy./Diag. 0.10E+00    7.8     0.00000125      -632.5697397569  1.37E-07
   176 Broy./Diag. 0.10E+00    7.8     0.00000068      -632.5697399630 -2.06E-07
   177 Broy./Diag. 0.10E+00    7.9     0.00000139      -632.5697400096 -4.66E-08
   178 Broy./Diag. 0.10E+00    7.9     0.00000234      -632.5697400712 -6.17E-08
   179 Broy./Diag. 0.10E+00    7.9     0.00000063      -632.5697400849 -1.37E-08
   180 Broy./Diag. 0.10E+00    7.9     0.00000077      -632.5697400331  5.18E-08
   181 Broy./Diag. 0.10E+00    7.9     0.00000078      -632.5697400543 -2.12E-08
   182 Broy./Diag. 0.10E+00    7.9     0.00000089      -632.5697401679 -1.14E-07
   183 Broy./Diag. 0.10E+00    7.9     0.00000154      -632.5697401130  5.48E-08
   184 Broy./Diag. 0.10E+00    7.8     0.00000107      -632.5697401411 -2.80E-08
   185 Broy./Diag. 0.10E+00    7.9     0.00000122      -632.5697402766 -1.36E-07
   186 Broy./Diag. 0.10E+00    7.9     0.00000231      -632.5697400986  1.78E-07
   187 Broy./Diag. 0.10E+00    7.9     0.00000086      -632.5697401605 -6.19E-08
   188 Broy./Diag. 0.10E+00    8.0     0.00000056      -632.5697401877 -2.72E-08
   189 Broy./Diag. 0.10E+00    7.9     0.00000104      -632.5697402359 -4.81E-08
   190 Broy./Diag. 0.10E+00    7.8     0.00000246      -632.5697402459 -1.00E-08
   191 Broy./Diag. 0.10E+00    7.9     0.00000216      -632.5697403933 -1.47E-07
   192 Broy./Diag. 0.10E+00    7.9     0.00000174      -632.5697401616  2.32E-07
   193 Broy./Diag. 0.10E+00    7.9     0.00000089      -632.5697403378 -1.76E-07
   194 Broy./Diag. 0.10E+00    7.9     0.00000053      -632.5697402988  3.90E-08
   195 Broy./Diag. 0.10E+00    7.8     0.00001110      -632.5697403428 -4.40E-08
   196 Broy./Diag. 0.10E+00    7.9     0.00000127      -632.5697394120  9.31E-07
   197 Broy./Diag. 0.10E+00    7.9     0.00000195      -632.5697392312  1.81E-07
   198 Broy./Diag. 0.10E+00    7.9     0.00000074      -632.5697394230 -1.92E-07
   199 Broy./Diag. 0.10E+00    7.9     0.00000119      -632.5697394048  1.82E-08
   200 Broy./Diag. 0.10E+00    7.7     0.00000113      -632.5697392049  2.00E-07
   201 Broy./Diag. 0.10E+00    7.8     0.00000054      -632.5697391308  7.41E-08
   202 Broy./Diag. 0.10E+00    7.9     0.00000145      -632.5697391600 -2.92E-08
   203 Broy./Diag. 0.10E+00    7.9     0.00000031      -632.5697391386  2.14E-08
   204 Broy./Diag. 0.10E+00    7.9     0.00000441      -632.5697387305  4.08E-07
   205 Broy./Diag. 0.10E+00    7.9     0.00000115      -632.5697382926  4.38E-07
   206 Broy./Diag. 0.10E+00    7.9     0.00000146      -632.5697381145  1.78E-07
   207 Broy./Diag. 0.10E+00    7.9     0.00000058      -632.5697381288 -1.43E-08
   208 Broy./Diag. 0.10E+00    7.9     0.00000128      -632.5697381034  2.55E-08
   209 Broy./Diag. 0.10E+00    7.9     0.00000104      -632.5697381506 -4.72E-08
   210 Broy./Diag. 0.10E+00    7.9     0.00000075      -632.5697382014 -5.09E-08
   211 Broy./Diag. 0.10E+00    7.8     0.00000125      -632.5697383953 -1.94E-07
   212 Broy./Diag. 0.10E+00    7.8     0.00000155      -632.5697382877  1.08E-07
   213 Broy./Diag. 0.10E+00    7.9     0.00000155      -632.5697383307 -4.30E-08
   214 Broy./Diag. 0.10E+00    7.8     0.00000064      -632.5697383674 -3.66E-08
   215 Broy./Diag. 0.10E+00    7.8     0.00000049      -632.5697384347 -6.73E-08
   216 Broy./Diag. 0.10E+00    7.8     0.00000073      -632.5697385647 -1.30E-07
   217 Broy./Diag. 0.10E+00    7.9     0.00000235      -632.5697386348 -7.01E-08
   218 Broy./Diag. 0.10E+00    7.8     0.00000034      -632.5697389653 -3.31E-07
   219 Broy./Diag. 0.10E+00    7.8     0.00000056      -632.5697389798 -1.45E-08
   220 Broy./Diag. 0.10E+00    7.9     0.00000043      -632.5697389529  2.70E-08
   221 Broy./Diag. 0.10E+00    7.9     0.00000063      -632.5697389540 -1.18E-09
   222 Broy./Diag. 0.10E+00    7.9     0.00000066      -632.5697389339  2.02E-08
   223 Broy./Diag. 0.10E+00    7.9     0.00000053      -632.5697389298  4.04E-09
   224 Broy./Diag. 0.10E+00    7.9     0.00000048      -632.5697387853  1.45E-07
   225 Broy./Diag. 0.10E+00    7.5     0.00000123      -632.5697390607 -2.75E-07
   226 Broy./Diag. 0.10E+00    7.1     0.00000078      -632.5697386819  3.79E-07
   227 Broy./Diag. 0.10E+00    7.4     0.00000068      -632.5697387532 -7.13E-08
   228 Broy./Diag. 0.10E+00    7.3     0.00000051      -632.5697390752 -3.22E-07
   229 Broy./Diag. 0.10E+00    7.0     0.00000099      -632.5697390508  2.44E-08
   230 Broy./Diag. 0.10E+00    6.7     0.00000019      -632.5697391079 -5.71E-08

  *** SCF run converged in   230 steps ***


  Electronic density on regular grids:       -447.9999999998        0.0000000002
  Core density on regular grids:              447.9999999996       -0.0000000004
  Total charge density on r-space grids:       -0.0000000003
  Total charge density g-space grids:          -0.0000000003

  Overlap energy of the core charge distribution:               0.00001865557362
  Self energy of the core charge distribution:              -1493.52088779770361
  Core Hamiltonian energy:                                    466.88890711112322
  Hartree energy:                                             585.25214319368797
  Exchange-correlation energy:                               -190.96252891049645
  Dispersion energy:                                           -0.22075422073812
  Electronic entropic energy:                                  -0.00663713926013
  Fermi energy:                                                -0.14641546843529

  Total energy:                                              -632.56973910792919

  outer SCF iter =    1 RMS gradient =   0.19E-06 energy =       -632.5697391079
  outer SCF loop converged in   1 iterations or  230 steps


  Integrated absolute spin density  :                               0.0001144283
  WARNING: S**2 computation does not yet treat fractional occupied orbitals

 *** WARNING in qs_loc_utils.F:1387 :: User requested the calculation of ***
 *** the localized wavefunction but the section LOCALIZE was not         ***
 *** specified. Localization will not be performed!                      ***


 -------------------------------------------------------------------------------
 -                                                                             -
 -  BSSE CALCULATION         FRAGMENT CONF: 01        FRAGMENT SUBCONF: 01     -
 -                           CHARGE =     0           MULTIPLICITY =     0     -
 -                                                                             -
 -                 ATOM INDEX                              ATOM NAME           -
 -                 ----------                              ---------           -
 -                    113                                   Na                 -
 -------------------------------------------------------------------------------

 *******************************************************************************
 *******************************************************************************
 **                                                                           **
 **     #####                         ##              ##                      **
 **    ##   ##            ##          ##              ##                      **
 **   ##     ##                       ##            ######                    **
 **   ##     ##  ##   ##  ##   #####  ##  ##   ####   ##    #####    #####    **
 **   ##     ##  ##   ##  ##  ##      ## ##   ##      ##   ##   ##  ##   ##   **
 **   ##  ## ##  ##   ##  ##  ##      ####     ###    ##   ######   ######    **
 **    ##  ###   ##   ##  ##  ##      ## ##      ##   ##   ##       ##        **
 **     #######   #####   ##   #####  ##  ##  ####    ##    #####   ##        **
 **           ##                                                    ##        **
 **                                                                           **
 **                                                ... make the atoms dance   **
 **                                                                           **
 **            Copyright (C) by CP2K developers group (2000 - 2018)           **
 **                                                                           **
 *******************************************************************************

 *** WARNING in qs_environment.F:1128 :: More added MOs requested for beta ***
 *** spin than available.                                                  ***


 *** WARNING in qs_environment.F:1142 :: More added MOs requested than ***
 *** available. The full set of unoccupied MOs will be used.           ***



 TOTAL NUMBERS AND MAXIMUM NUMBERS

  Total number of            - Atomic kinds:                                   1
                             - Atoms:                                          1
                             - Shell sets:                                     1
                             - Shells:                                         5
                             - Primitive Cartesian functions:                  7
                             - Cartesian basis functions:                      9
                             - Spherical basis functions:                      9

  Maximum angular momentum of- Orbital basis functions:                        1
                             - Local part of the GTH pseudopotential:          2
                             - Non-local part of the GTH pseudopotential:      1


 SCF PARAMETERS         Density guess:                                    ATOMIC
                        --------------------------------------------------------
                        max_scf:                                             400
                        max_scf_history:                                       0
                        max_diis:                                              4
                        --------------------------------------------------------
                        eps_scf:                                        3.00E-07
                        eps_scf_history:                                0.00E+00
                        eps_diis:                                       1.00E-01
                        eps_eigval:                                     1.00E-05
                        --------------------------------------------------------
                        level_shift [a.u.]:                                 0.00
                        added MOs                                         4    5
                        --------------------------------------------------------
                        Mixing method:                            BROYDEN_MIXING
                                                charge density mixing in g-space
                        --------------------------------------------------------
                        Smear method:                                FERMI_DIRAC
                        Electronic temperature [K]:                        300.0
                        Electronic temperature [a.u.]:                  9.50E-04
                        Accuracy threshold:                             1.00E-10
                        --------------------------------------------------------
                        Outer loop SCF in use 
                        No variables optimised in outer loop
                        eps_scf                                         1.00E-06
                        max_scf                                              100
                        DIIS optimization
                        DIIS buffer length                                     3
                        step_size                                       5.00E-01

 Spin 1

 Number of electrons:                                                          5
 Number of occupied orbitals:                                                  5
 Number of molecular orbitals:                                                 9

 Spin 2

 Number of electrons:                                                          4
 Number of occupied orbitals:                                                  4
 Number of molecular orbitals:                                                 9

 Number of orbital functions:                                                  9
 Number of independent orbital functions:                                      9

 Extrapolation method: initial_guess


 SCF WAVEFUNCTION OPTIMIZATION

  Step     Update method      Time    Convergence         Total energy    Change
  ------------------------------------------------------------------------------
     1 NoMix/Diag. 0.10E+00    2.3     0.36438690       -47.1649297304 -4.72E+01
     2 Broy./Diag. 0.10E+00    3.8     0.01268283       -47.1381991150  2.67E-02
     3 Broy./Diag. 0.10E+00    4.7     0.06965571       -47.1613221186 -2.31E-02
     4 Broy./Diag. 0.10E+00    4.0     0.00105504       -47.1451610031  1.62E-02
     5 Broy./Diag. 0.10E+00    4.9     0.00349279       -47.1558531743 -1.07E-02
     6 Broy./Diag. 0.10E+00    3.8     0.00090825       -47.1499804881  5.87E-03
     7 Broy./Diag. 0.10E+00    5.3     0.01190319       -47.1534103800 -3.43E-03
     8 Broy./Diag. 0.10E+00    4.7     0.00141845       -47.1587473944 -5.34E-03
     9 Broy./Diag. 0.10E+00    4.9     0.00645127       -47.1553921742  3.36E-03
    10 Broy./Diag. 0.10E+00    5.9     0.00099538       -47.1615941569 -6.20E-03
    11 Broy./Diag. 0.10E+00    5.2     0.00163605       -47.1592255199  2.37E-03
    12 Broy./Diag. 0.10E+00    5.2     0.00119922       -47.1664684666 -7.24E-03
    13 Broy./Diag. 0.10E+00    5.9     0.00106765       -47.1643353303  2.13E-03
    14 Broy./Diag. 0.10E+00    5.2     0.00099462       -47.1606268704  3.71E-03
    15 Broy./Diag. 0.10E+00    5.2     0.00050533       -47.1579715532  2.66E-03
    16 Broy./Diag. 0.10E+00    5.8     0.00051417       -47.1611197351 -3.15E-03
    17 Broy./Diag. 0.10E+00    5.2     0.00041737       -47.1609173234  2.02E-04
    18 Broy./Diag. 0.10E+00    5.2     0.00013593       -47.1611292955 -2.12E-04
    19 Broy./Diag. 0.10E+00    5.8     0.00040158       -47.1582498623  2.88E-03
    20 Broy./Diag. 0.10E+00    5.2     0.00003205       -47.1570295597  1.22E-03
    21 Broy./Diag. 0.10E+00    5.2     0.00018880       -47.1600255399 -3.00E-03
    22 Broy./Diag. 0.10E+00    5.8     0.00015350       -47.1578206071  2.20E-03
    23 Broy./Diag. 0.10E+00    5.2     0.00029335       -47.1544172595  3.40E-03
    24 Broy./Diag. 0.10E+00    5.1     0.00031767       -47.1549286077 -5.11E-04
    25 Broy./Diag. 0.10E+00    5.8     0.00014537       -47.1560240084 -1.10E-03
    26 Broy./Diag. 0.10E+00    5.2     0.00009150       -47.1547664410  1.26E-03
    27 Broy./Diag. 0.10E+00    5.2     0.00002203       -47.1544603834  3.06E-04
    28 Broy./Diag. 0.10E+00    5.8     0.00016962       -47.1565339646 -2.07E-03
    29 Broy./Diag. 0.10E+00    5.2     0.00002975       -47.1564862185  4.77E-05
    30 Broy./Diag. 0.10E+00    5.2     0.00004375       -47.1561567350  3.29E-04
    31 Broy./Diag. 0.10E+00    5.8     0.00006824       -47.1562903942 -1.34E-04
    32 Broy./Diag. 0.10E+00    5.2     0.00017399       -47.1567137048 -4.23E-04
    33 Broy./Diag. 0.10E+00    5.2     0.00042743       -47.1565096238  2.04E-04
    34 Broy./Diag. 0.10E+00    5.8     0.00017836       -47.1559391950  5.70E-04
    35 Broy./Diag. 0.10E+00    5.2     0.00008114       -47.1562695678 -3.30E-04
    36 Broy./Diag. 0.10E+00    5.2     0.00004599       -47.1562352239  3.43E-05
    37 Broy./Diag. 0.10E+00    5.8     0.00012278       -47.1558713011  3.64E-04
    38 Broy./Diag. 0.10E+00    5.2     0.00003229       -47.1558747616 -3.46E-06
    39 Broy./Diag. 0.10E+00    5.2     0.00003399       -47.1559815318 -1.07E-04
    40 Broy./Diag. 0.10E+00    5.8     0.00002742       -47.1553574840  6.24E-04
    41 Broy./Diag. 0.10E+00    5.2     0.00002371       -47.1554508153 -9.33E-05
    42 Broy./Diag. 0.10E+00    5.2     0.00002074       -47.1558271945 -3.76E-04
    43 Broy./Diag. 0.10E+00    5.8     0.00003266       -47.1556057535  2.21E-04
    44 Broy./Diag. 0.10E+00    5.2     0.00004199       -47.1554307243  1.75E-04
    45 Broy./Diag. 0.10E+00    5.2     0.00002616       -47.1554000928  3.06E-05
    46 Broy./Diag. 0.10E+00    5.7     0.00001825       -47.1555616200 -1.62E-04
    47 Broy./Diag. 0.10E+00    5.2     0.00000656       -47.1556607913 -9.92E-05
    48 Broy./Diag. 0.10E+00    5.2     0.00001070       -47.1557208179 -6.00E-05
    49 Broy./Diag. 0.10E+00    5.8     0.00000488       -47.1557256296 -4.81E-06
    50 Broy./Diag. 0.10E+00    5.2     0.00001127       -47.1556679981  5.76E-05
    51 Broy./Diag. 0.10E+00    5.2     0.00002041       -47.1556776438 -9.65E-06
    52 Broy./Diag. 0.10E+00    5.8     0.00003184       -47.1556975458 -1.99E-05
    53 Broy./Diag. 0.10E+00    5.2     0.00003983       -47.1556659279  3.16E-05
    54 Broy./Diag. 0.10E+00    5.1     0.00000950       -47.1556689210 -2.99E-06
    55 Broy./Diag. 0.10E+00    5.8     0.00001589       -47.1556581126  1.08E-05
    56 Broy./Diag. 0.10E+00    5.2     0.00003620       -47.1556508709  7.24E-06
    57 Broy./Diag. 0.10E+00    5.3     0.00002574       -47.1555532176  9.77E-05
    58 Broy./Diag. 0.10E+00    5.8     0.00001339       -47.1555655761 -1.24E-05
    59 Broy./Diag. 0.10E+00    5.2     0.00002102       -47.1555640486  1.53E-06
    60 Broy./Diag. 0.10E+00    5.2     0.00001972       -47.1555242779  3.98E-05
    61 Broy./Diag. 0.10E+00    5.8     0.00001469       -47.1555259369 -1.66E-06
    62 Broy./Diag. 0.10E+00    5.2     0.00000957       -47.1554473254  7.86E-05
    63 Broy./Diag. 0.10E+00    5.1     0.00000929       -47.1554099012  3.74E-05
    64 Broy./Diag. 0.10E+00    5.9     0.00001742       -47.1554290782 -1.92E-05
    65 Broy./Diag. 0.10E+00    5.3     0.00000874       -47.1554629161 -3.38E-05
    66 Broy./Diag. 0.10E+00    5.3     0.00000459       -47.1554641397 -1.22E-06
    67 Broy./Diag. 0.10E+00    5.9     0.00000973       -47.1554791534 -1.50E-05
    68 Broy./Diag. 0.10E+00    5.2     0.00001500       -47.1554895716 -1.04E-05
    69 Broy./Diag. 0.10E+00    5.0     0.00001087       -47.1556113121 -1.22E-04
    70 Broy./Diag. 0.10E+00    5.8     0.00001746       -47.1558087296 -1.97E-04
    71 Broy./Diag. 0.10E+00    5.2     0.00000614       -47.1559341132 -1.25E-04
    72 Broy./Diag. 0.10E+00    5.0     0.00000462       -47.1560061864 -7.21E-05
    73 Broy./Diag. 0.10E+00    5.8     0.00001302       -47.1559139344  9.23E-05
    74 Broy./Diag. 0.10E+00    5.2     0.00000643       -47.1557591020  1.55E-04
    75 Broy./Diag. 0.10E+00    5.1     0.00000716       -47.1555973385  1.62E-04
    76 Broy./Diag. 0.10E+00    5.8     0.00000392       -47.1555583989  3.89E-05
    77 Broy./Diag. 0.10E+00    5.3     0.00000749       -47.1555193867  3.90E-05
    78 Broy./Diag. 0.10E+00    5.0     0.00000600       -47.1555157931  3.59E-06
    79 Broy./Diag. 0.10E+00    5.9     0.00000759       -47.1555065549  9.24E-06
    80 Broy./Diag. 0.10E+00    5.4     0.00001115       -47.1555563191 -4.98E-05
    81 Broy./Diag. 0.10E+00    4.9     0.00000968       -47.1555344534  2.19E-05
    82 Broy./Diag. 0.10E+00    5.9     0.00000533       -47.1555122256  2.22E-05
    83 Broy./Diag. 0.10E+00    5.4     0.00000245       -47.1555101921  2.03E-06
    84 Broy./Diag. 0.10E+00    4.9     0.00000573       -47.1555243447 -1.42E-05
    85 Broy./Diag. 0.10E+00    5.9     0.00000066       -47.1555255453 -1.20E-06
    86 Broy./Diag. 0.10E+00    5.4     0.00000227       -47.1555265095 -9.64E-07
    87 Broy./Diag. 0.10E+00    4.9     0.00000164       -47.1555294912 -2.98E-06
    88 Broy./Diag. 0.10E+00    5.9     0.00000116       -47.1555298753 -3.84E-07
    89 Broy./Diag. 0.10E+00    5.5     0.00000134       -47.1555314001 -1.52E-06
    90 Broy./Diag. 0.10E+00    4.9     0.00000077       -47.1555295149  1.89E-06
    91 Broy./Diag. 0.10E+00    5.8     0.00000075       -47.1555281948  1.32E-06
    92 Broy./Diag. 0.10E+00    5.6     0.00000079       -47.1555277400  4.55E-07
    93 Broy./Diag. 0.10E+00    4.8     0.00000147       -47.1555262406  1.50E-06
    94 Broy./Diag. 0.10E+00    5.8     0.00000149       -47.1555287140 -2.47E-06
    95 Broy./Diag. 0.10E+00    5.6     0.00000044       -47.1555317339 -3.02E-06
    96 Broy./Diag. 0.10E+00    4.7     0.00000188       -47.1555306832  1.05E-06
    97 Broy./Diag. 0.10E+00    5.6     0.00000284       -47.1555230844  7.60E-06
    98 Broy./Diag. 0.10E+00    5.0     0.00000765       -47.1555299204 -6.84E-06
    99 Broy./Diag. 0.10E+00    4.7     0.00000301       -47.1555022166  2.77E-05
   100 Broy./Diag. 0.10E+00    5.3     0.00000198       -47.1554936913  8.53E-06
   101 Broy./Diag. 0.10E+00    5.6     0.00000086       -47.1554861733  7.52E-06
   102 Broy./Diag. 0.10E+00    5.2     0.00000359       -47.1554889489 -2.78E-06
   103 Broy./Diag. 0.10E+00    4.7     0.00000182       -47.1555039956 -1.50E-05
   104 Broy./Diag. 0.10E+00    5.3     0.00000122       -47.1554956831  8.31E-06
   105 Broy./Diag. 0.10E+00    5.7     0.00000385       -47.1554933256  2.36E-06
   106 Broy./Diag. 0.10E+00    5.2     0.00000079       -47.1555065284 -1.32E-05
   107 Broy./Diag. 0.10E+00    5.0     0.00000166       -47.1555052414  1.29E-06
   108 Broy./Diag. 0.10E+00    5.8     0.00000241       -47.1554950701  1.02E-05
   109 Broy./Diag. 0.10E+00    5.5     0.00000078       -47.1555024901 -7.42E-06
   110 Broy./Diag. 0.10E+00    4.8     0.00000246       -47.1555088692 -6.38E-06
   111 Broy./Diag. 0.10E+00    5.9     0.00000094       -47.1554954685  1.34E-05
   112 Broy./Diag. 0.10E+00    5.5     0.00000104       -47.1554939308  1.54E-06
   113 Broy./Diag. 0.10E+00    4.8     0.00000348       -47.1554965574 -2.63E-06
   114 Broy./Diag. 0.10E+00    5.8     0.00000241       -47.1555067894 -1.02E-05
   115 Broy./Diag. 0.10E+00    5.5     0.00000094       -47.1554981337  8.66E-06
   116 Broy./Diag. 0.10E+00    4.8     0.00000106       -47.1554976431  4.91E-07
   117 Broy./Diag. 0.10E+00    5.8     0.00000035       -47.1554910011  6.64E-06
   118 Broy./Diag. 0.10E+00    5.5     0.00000046       -47.1554895012  1.50E-06
   119 Broy./Diag. 0.10E+00    4.8     0.00000518       -47.1554935918 -4.09E-06
   120 Broy./Diag. 0.10E+00    5.8     0.00000122       -47.1555141152 -2.05E-05
   121 Broy./Diag. 0.10E+00    5.5     0.00000136       -47.1555151359 -1.02E-06
   122 Broy./Diag. 0.10E+00    4.8     0.00000106       -47.1555124120  2.72E-06
   123 Broy./Diag. 0.10E+00    5.8     0.00000045       -47.1555111704  1.24E-06
   124 Broy./Diag. 0.10E+00    5.5     0.00000019       -47.1555130463 -1.88E-06

  *** SCF run converged in   124 steps ***


  Electronic density on regular grids:         -8.9999571280        0.0000428720
  Core density on regular grids:                9.0000000000       -0.0000000000
  Total charge density on r-space grids:        0.0000428720
  Total charge density g-space grids:           0.0000428720

  Overlap energy of the core charge distribution:               0.00000000000000
  Self energy of the core charge distribution:                -96.60649019442629
  Core Hamiltonian energy:                                     29.74639272815263
  Hartree energy:                                              26.74991717180644
  Exchange-correlation energy:                                 -7.04533144584073
  Dispersion energy:                                           -0.00000130538029
  Electronic entropic energy:                                  -0.00000000059098
  Fermi energy:                                                -0.08376078522901

  Total energy:                                               -47.15551304628829

  outer SCF iter =    1 RMS gradient =   0.19E-06 energy =        -47.1555130463
  outer SCF loop converged in   1 iterations or  124 steps


  Integrated absolute spin density  :                               1.0000143402
  WARNING: S**2 computation does not yet treat fractional occupied orbitals

 *** WARNING in qs_loc_utils.F:1387 :: User requested the calculation of ***
 *** the localized wavefunction but the section LOCALIZE was not         ***
 *** specified. Localization will not be performed!                      ***


 -------------------------------------------------------------------------------
 -                                                                             -
 -  BSSE CALCULATION         FRAGMENT CONF: 11        FRAGMENT SUBCONF: 10     -
 -                           CHARGE =     0           MULTIPLICITY =     0     -
 -                                                                             -
 -                 ATOM INDEX                              ATOM NAME           -
 -                 ----------                              ---------           -
 -                      1                                   C                  -
 -                      2                                   C                  -
 -                      3                                   C                  -
 -                      4                                   C                  -
 -                      5                                   C                  -
 -                      6                                   C                  -
 -                      7                                   C                  -
 -                      8                                   C                  -
 -                      9                                   C                  -
 -                     10                                   C                  -
 -                     11                                   C                  -
 -                     12                                   C                  -
 -                     13                                   C                  -
 -                     14                                   C                  -
 -                     15                                   C                  -
 -                     16                                   C                  -
 -                     17                                   C                  -
 -                     18                                   C                  -
 -                     19                                   C                  -
 -                     20                                   C                  -
 -                     21                                   C                  -
 -                     22                                   C                  -
 -                     23                                   C                  -
 -                     24                                   C                  -
 -                     25                                   C                  -
 -                     26                                   C                  -
 -                     27                                   C                  -
 -                     28                                   C                  -
 -                     29                                   C                  -
 -                     30                                   C                  -
 -                     31                                   C                  -
 -                     32                                   C                  -
 -                     33                                   C                  -
 -                     34                                   C                  -
 -                     35                                   C                  -
 -                     36                                   C                  -
 -                     37                                   C                  -
 -                     38                                   C                  -
 -                     39                                   C                  -
 -                     40                                   C                  -
 -                     41                                   C                  -
 -                     42                                   C                  -
 -                     43                                   C                  -
 -                     44                                   C                  -
 -                     45                                   C                  -
 -                     46                                   C                  -
 -                     47                                   C                  -
 -                     48                                   C                  -
 -                     49                                   C                  -
 -                     50                                   C                  -
 -                     51                                   C                  -
 -                     52                                   C                  -
 -                     53                                   C                  -
 -                     54                                   C                  -
 -                     55                                   C                  -
 -                     56                                   C                  -
 -                     57                                   C                  -
 -                     58                                   C                  -
 -                     59                                   C                  -
 -                     60                                   C                  -
 -                     61                                   C                  -
 -                     62                                   C                  -
 -                     63                                   C                  -
 -                     64                                   C                  -
 -                     65                                   C                  -
 -                     66                                   C                  -
 -                     67                                   C                  -
 -                     68                                   C                  -
 -                     69                                   C                  -
 -                     70                                   C                  -
 -                     71                                   C                  -
 -                     72                                   C                  -
 -                     73                                   C                  -
 -                     74                                   C                  -
 -                     75                                   C                  -
 -                     76                                   C                  -
 -                     77                                   C                  -
 -                     78                                   C                  -
 -                     79                                   C                  -
 -                     80                                   C                  -
 -                     81                                   C                  -
 -                     82                                   C                  -
 -                     83                                   C                  -
 -                     84                                   C                  -
 -                     85                                   C                  -
 -                     86                                   C                  -
 -                     87                                   C                  -
 -                     88                                   C                  -
 -                     89                                   C                  -
 -                     90                                   C                  -
 -                     91                                   C                  -
 -                     92                                   C                  -
 -                     93                                   C                  -
 -                     94                                   C                  -
 -                     95                                   C                  -
 -                     96                                   C                  -
 -                     97                                   C                  -
 -                     98                                   C                  -
 -                     99                                   C                  -
 -                    100                                   C                  -
 -                    101                                   C                  -
 -                    102                                   C                  -
 -                    103                                   C                  -
 -                    104                                   C                  -
 -                    105                                   C                  -
 -                    106                                   C                  -
 -                    107                                   C                  -
 -                    108                                   C                  -
 -                    109                                   C                  -
 -                    110                                   C                  -
 -                    111                                   C                  -
 -                    112                                   C                  -
 -                    113                                   Na_ghost           -
 -------------------------------------------------------------------------------

 *******************************************************************************
 *******************************************************************************
 **                                                                           **
 **     #####                         ##              ##                      **
 **    ##   ##            ##          ##              ##                      **
 **   ##     ##                       ##            ######                    **
 **   ##     ##  ##   ##  ##   #####  ##  ##   ####   ##    #####    #####    **
 **   ##     ##  ##   ##  ##  ##      ## ##   ##      ##   ##   ##  ##   ##   **
 **   ##  ## ##  ##   ##  ##  ##      ####     ###    ##   ######   ######    **
 **    ##  ###   ##   ##  ##  ##      ## ##      ##   ##   ##       ##        **
 **     #######   #####   ##   #####  ##  ##  ####    ##    #####   ##        **
 **           ##                                                    ##        **
 **                                                                           **
 **                                                ... make the atoms dance   **
 **                                                                           **
 **            Copyright (C) by CP2K developers group (2000 - 2018)           **
 **                                                                           **
 *******************************************************************************


 TOTAL NUMBERS AND MAXIMUM NUMBERS

  Total number of            - Atomic kinds:                                   2
                             - Atoms:                                        113
                             - Shell sets:                                   113
                             - Shells:                                       565
                             - Primitive Cartesian functions:                567
                             - Cartesian basis functions:                   1577
                             - Spherical basis functions:                   1465

  Maximum angular momentum of- Orbital basis functions:                        2
                             - Local part of the GTH pseudopotential:          2
                             - Non-local part of the GTH pseudopotential:      0


 SCF PARAMETERS         Density guess:                                    ATOMIC
                        --------------------------------------------------------
                        max_scf:                                             400
                        max_scf_history:                                       0
                        max_diis:                                              4
                        --------------------------------------------------------
                        eps_scf:                                        3.00E-07
                        eps_scf_history:                                0.00E+00
                        eps_diis:                                       1.00E-01
                        eps_eigval:                                     1.00E-05
                        --------------------------------------------------------
                        level_shift [a.u.]:                                 0.00
                        added MOs                                       100  100
                        --------------------------------------------------------
                        Mixing method:                            BROYDEN_MIXING
                                                charge density mixing in g-space
                        --------------------------------------------------------
                        Smear method:                                FERMI_DIRAC
                        Electronic temperature [K]:                        300.0
                        Electronic temperature [a.u.]:                  9.50E-04
                        Accuracy threshold:                             1.00E-10
                        --------------------------------------------------------
                        Outer loop SCF in use 
                        No variables optimised in outer loop
                        eps_scf                                         1.00E-06
                        max_scf                                              100
                        DIIS optimization
                        DIIS buffer length                                     3
                        step_size                                       5.00E-01

 Spin 1

 Number of electrons:                                                        224
 Number of occupied orbitals:                                                224
 Number of molecular orbitals:                                               324

 Spin 2

 Number of electrons:                                                        224
 Number of occupied orbitals:                                                224
 Number of molecular orbitals:                                               324

 Number of orbital functions:                                               1465
 Number of independent orbital functions:                                   1465

 Extrapolation method: initial_guess


 SCF WAVEFUNCTION OPTIMIZATION

  Step     Update method      Time    Convergence         Total energy    Change
  ------------------------------------------------------------------------------
     1 NoMix/Diag. 0.10E+00    3.4     0.45132330      -627.8926975268 -6.28E+02
     2 Broy./Diag. 0.10E+00    5.6     0.10848739      -603.5200150774  2.44E+01
     3 Broy./Diag. 0.10E+00    5.8     0.15428878      -611.1927165621 -7.67E+00
     4 Broy./Diag. 0.10E+00    6.1     7.56593218      -625.5428105766 -1.44E+01
     5 Broy./Diag. 0.10E+00    6.5     7.56588792      -607.0333591353  1.85E+01
     6 Broy./Diag. 0.10E+00    6.9     0.43659782      -629.8874774255 -2.29E+01
     7 Broy./Diag. 0.10E+00    7.0     0.11844428      -630.8955164685 -1.01E+00
     8 Broy./Diag. 0.10E+00    7.0     7.69039174      -631.3351510322 -4.40E-01
     9 Broy./Diag. 0.10E+00    7.0     7.69677859      -608.7529129373  2.26E+01
    10 Broy./Diag. 0.10E+00    7.2     7.68072133      -631.3781411497 -2.26E+01
    11 Broy./Diag. 0.10E+00    7.2     7.68075093      -580.9906764555  5.04E+01
    12 Broy./Diag. 0.10E+00    7.2     7.71099516      -627.8261788737 -4.68E+01
    13 Broy./Diag. 0.10E+00    7.1     7.71103286      -608.9156110007  1.89E+01
    14 Broy./Diag. 0.10E+00    7.2     7.59754013      -631.7885529662 -2.29E+01
    15 Broy./Diag. 0.10E+00    7.1     7.59753995      -562.3019367977  6.95E+01
    16 Broy./Diag. 0.10E+00    7.1     7.60899073      -631.8152848163 -6.95E+01
    17 Broy./Diag. 0.10E+00    7.1     7.62712934      -608.5430824026  2.33E+01
    18 Broy./Diag. 0.10E+00    7.2     7.65150858      -608.4743814367  6.87E-02
    19 Broy./Diag. 0.10E+00    7.1     0.34495332      -631.8133810896 -2.33E+01
    20 Broy./Diag. 0.10E+00    7.1     0.34494269      -630.4495984176  1.36E+00
    21 Broy./Diag. 0.10E+00    7.1     0.02777447      -631.8750654669 -1.43E+00
    22 Broy./Diag. 0.10E+00    7.0     0.17038278      -631.9052772077 -3.02E-02
    23 Broy./Diag. 0.10E+00    6.9     0.16926363      -631.3681885809  5.37E-01
    24 Broy./Diag. 0.10E+00    6.9     0.02139793      -631.8875740760 -5.19E-01
    25 Broy./Diag. 0.10E+00    7.0     0.02135888      -631.9449755472 -5.74E-02
    26 Broy./Diag. 0.10E+00    6.9     0.02632461      -632.0995264687 -1.55E-01
    27 Broy./Diag. 0.10E+00    6.8     0.01925038      -632.1592835554 -5.98E-02
[...]
   353 Broy./Diag. 0.10E+00    5.3     0.00001830      -679.7764886009  1.93E-06
   354 Broy./Diag. 0.10E+00    5.3     0.00002503      -679.7764956916 -7.09E-06
   355 Broy./Diag. 0.10E+00    5.3     0.00000811      -679.7764881651  7.53E-06
   356 Broy./Diag. 0.10E+00    5.3     0.00002061      -679.7764890719 -9.07E-07
   357 Broy./Diag. 0.10E+00    5.3     0.00001117      -679.7764937707 -4.70E-06
   358 Broy./Diag. 0.10E+00    5.3     0.00001013      -679.7764907663  3.00E-06
   359 Broy./Diag. 0.10E+00    5.3     0.00001372      -679.7764930789 -2.31E-06
   360 Broy./Diag. 0.10E+00    5.3     0.00000245      -679.7764919625  1.12E-06
   361 Broy./Diag. 0.10E+00    5.2     0.00001148      -679.7764925935 -6.31E-07
   362 Broy./Diag. 0.10E+00    5.3     0.00001516      -679.7764952273 -2.63E-06
   363 Broy./Diag. 0.10E+00    5.3     0.00002428      -679.7764907206  4.51E-06
   364 Broy./Diag. 0.10E+00    5.3     0.00001065      -679.7764853992  5.32E-06
   365 Broy./Diag. 0.10E+00    5.2     0.00001611      -679.7764964320 -1.10E-05
   366 Broy./Diag. 0.10E+00    5.3     0.00001302      -679.7764912881  5.14E-06
   367 Broy./Diag. 0.10E+00    5.3     0.00000818      -679.7764865526  4.74E-06
   368 Broy./Diag. 0.10E+00    5.3     0.00000679      -679.7764866710 -1.18E-07
   369 Broy./Diag. 0.10E+00    5.3     0.00002432      -679.7764867615 -9.05E-08
   370 Broy./Diag. 0.10E+00    5.3     0.00001633      -679.7764900076 -3.25E-06
   371 Broy./Diag. 0.10E+00    5.3     0.00000913      -679.7764906239 -6.16E-07
   372 Broy./Diag. 0.10E+00    5.3     0.00000695      -679.7764925364 -1.91E-06
   373 Broy./Diag. 0.10E+00    5.3     0.00000719      -679.7764922597  2.77E-07
   374 Broy./Diag. 0.10E+00    5.3     0.00000340      -679.7764915758  6.84E-07
   375 Broy./Diag. 0.10E+00    5.3     0.00000325      -679.7764923035 -7.28E-07
   376 Broy./Diag. 0.10E+00    5.3     0.00000444      -679.7764937995 -1.50E-06
   377 Broy./Diag. 0.10E+00    5.3     0.00000774      -679.7764923925  1.41E-06
   378 Broy./Diag. 0.10E+00    5.3     0.00001912      -679.7764932373 -8.45E-07
   379 Broy./Diag. 0.10E+00    5.4     0.00001290      -679.7764932802 -4.30E-08
   380 Broy./Diag. 0.10E+00    5.3     0.00001362      -679.7764904107  2.87E-06
   381 Broy./Diag. 0.10E+00    5.3     0.00002030      -679.7764903735  3.72E-08
   382 Broy./Diag. 0.10E+00    5.3     0.00001939      -679.7764937988 -3.43E-06
   383 Broy./Diag. 0.10E+00    5.3     0.00001549      -679.7764897997  4.00E-06
   384 Broy./Diag. 0.10E+00    5.3     0.00001241      -679.7764914125 -1.61E-06
   385 Broy./Diag. 0.10E+00    5.3     0.00000736      -679.7764946108 -3.20E-06
   386 Broy./Diag. 0.10E+00    5.3     0.00000025      -679.7764920674  2.54E-06

  *** SCF run converged in   386 steps ***


  Electronic density on regular grids:       -456.9999570118        0.0000429882
  Core density on regular grids:              456.9999999996       -0.0000000004
  Total charge density on r-space grids:        0.0000429877
  Total charge density g-space grids:           0.0000429877

  Overlap energy of the core charge distribution:               0.00001865557362
  Self energy of the core charge distribution:              -1590.12737799212982
  Core Hamiltonian energy:                                    496.89060052410298
  Hartree energy:                                             611.88084296651323
  Exchange-correlation energy:                               -198.18018219386977
  Dispersion energy:                                           -0.23223387105969
  Electronic entropic energy:                                  -0.00816015541966
  Fermi energy:                                                -0.13362537937939

  Total energy:                                              -679.77649206739909

  outer SCF iter =    7 RMS gradient =   0.25E-06 energy =       -679.7764920674
  outer SCF loop converged in   7 iterations or 2786 steps


  Integrated absolute spin density  :                               0.0316424498
  WARNING: S**2 computation does not yet treat fractional occupied orbitals

 *** WARNING in qs_loc_utils.F:1387 :: User requested the calculation of ***
 *** the localized wavefunction but the section LOCALIZE was not         ***
 *** specified. Localization will not be performed!                      ***


 -------------------------------------------------------------------------------
 -                                                                             -
 -                                 BSSE RESULTS                                -
 -                                                                             -
 -                 CP-corrected Total energy:     -679.775070                  -
 -                                                                             -
 -                       1-body contribution:     -632.569739                  -
 -                       1-body contribution:      -47.155513                  -
 -                                                                             -
 -                       2-body contribution:       -0.049817                  -
 -                 BSSE-free interaction energy:       -0.049817               -
 -------------------------------------------------------------------------------

 -------------------------------------------------------------------------------
 -                                                                             -
 -                                DBCSR STATISTICS                             -
 -                                                                             -
 -------------------------------------------------------------------------------
 COUNTER                                    TOTAL       BLAS       SMM       ACC
 flops     9 x     9 x     8               136080       0.0%    100.0%      0.0%
 flops     9 x     9 x     9               514674       0.0%    100.0%      0.0%
 flops     9 x     9 x    32              3265920       0.0%    100.0%      0.0%
 flops     9 x     9 x    68              5618160       0.0%    100.0%      0.0%
 flops    13 x     9 x     8             10417680       0.0%    100.0%      0.0%
 flops     9 x    13 x     8             10614240       0.0%    100.0%      0.0%
 flops    13 x     9 x     9             11719890       0.0%    100.0%      0.0%
 flops     9 x    13 x     9             11941020       0.0%    100.0%      0.0%
 flops     9 x     9 x    72             32495904       0.0%    100.0%      0.0%
 flops     9 x     9 x    73             32947236       0.0%    100.0%      0.0%
 flops     9 x     9 x    64             63058176       0.0%    100.0%      0.0%
 flops     9 x     9 x    96            189174528       0.0%    100.0%      0.0%
 flops    13 x     9 x    32            250024320       0.0%    100.0%      0.0%
 flops     9 x    13 x    32            254741760       0.0%    100.0%      0.0%
 flops    13 x     9 x    68            430101360       0.0%    100.0%      0.0%
 flops     9 x    13 x    68            438216480       0.0%    100.0%      0.0%
 flops    13 x    13 x     8           1614936960       0.0%    100.0%      0.0%
 flops    13 x    13 x     9           1816804080       0.0%    100.0%      0.0%
 flops    13 x     9 x    72           2487741984       0.0%    100.0%      0.0%
 flops    13 x     9 x    73           2522293956       0.0%    100.0%      0.0%
 flops     9 x    13 x    72           2534680512       0.0%    100.0%      0.0%
 flops     9 x    13 x    73           2569884408       0.0%    100.0%      0.0%
 flops    13 x     9 x    64           4827453696       0.0%    100.0%      0.0%
 flops     9 x    13 x    64           4918537728       0.0%    100.0%      0.0%
 flops    13 x     9 x    96          14482361088       0.0%    100.0%      0.0%
 flops     9 x    13 x    96          14755613184       0.0%    100.0%      0.0%
 flops    13 x    13 x    32          38758487040       0.0%    100.0%      0.0%
 flops    13 x    13 x    68         126811002240       0.0%    100.0%      0.0%
 flops    13 x    13 x    72         385646946048       0.0%    100.0%      0.0%
 flops    13 x    13 x    73         391003153632       0.0%    100.0%      0.0%
 flops    13 x    13 x    64         804946102272       0.0%    100.0%      0.0%
 flops    13 x    13 x    96        2414838306816       0.0%    100.0%      0.0%
 flops inhomo. stacks                           0       0.0%      0.0%      0.0%
 flops total                         4.216279E+12       0.0%    100.0%      0.0%
 flops max/rank                    277.701662E+09       0.0%    100.0%      0.0%
 matmuls inhomo. stacks                         0       0.0%      0.0%      0.0%
 matmuls total                          156339896       0.0%    100.0%      0.0%
 number of processed stacks                633720       0.0%    100.0%      0.0%
 average stack size                                     0.0     246.7       0.0
 marketing flops                     6.660524E+12
 -------------------------------------------------------------------------------
 # multiplications                           7000
 max memory usage/rank               1.716838E+09
 # max total images/rank                        1
 # max 3D layers                                1
 # MPI messages exchanged                  672000
 MPI messages size (bytes):
  total size                       152.290198E+09
  min size                           0.000000E+00
  max size                         286.464000E+03
  average size                     226.622312E+03
 MPI breakdown and total messages size (bytes):
             size <=      128               22320                        0
       128 < size <=     8192                1488                   964224
      8192 < size <=    32768                5040                125521200
     32768 < size <=   131072               15120               1417651200
    131072 < size <=  4194304              628032             150749652960
   4194304 < size <= 16777216                   0                        0
  16777216 < size                               0                        0
 -------------------------------------------------------------------------------

 MEMORY| Estimated peak process memory [MiB]                                1638

 -------------------------------------------------------------------------------
 -                                                                             -
 -                         MESSAGE PASSING PERFORMANCE                         -
 -                                                                             -
 -------------------------------------------------------------------------------

 ROUTINE             CALLS      AVE VOLUME [Bytes]
 MP_Group             7034
 MP_Bcast             3934                 244290.
 MP_Allreduce       109549                    134.
 MP_Sync               272
 MP_Alltoall        283678               10354070.
 MP_SendRecv         84000                 746496.
 MP_ISendRecv       420300                 251100.
 MP_Wait           1442905
 MP_comm_split         248
 MP_ISend           700520                 944713.
 MP_IRecv           700520                 942939.
 MP_Recv              3364                 371066.
 MP_Memory          543100
 -------------------------------------------------------------------------------


 -------------------------------------------------------------------------------
 -                                                                             -
 -                           R E F E R E N C E S                               -
 -                                                                             -
 -------------------------------------------------------------------------------
 
 CP2K version 7.0 (Development Version), the CP2K developers group (2018).
 CP2K is freely available from https://www.cp2k.org/ .

 Schuett, Ole; Messmer, Peter; Hutter, Juerg; VandeVondele, Joost. 
 Electronic Structure Calculations on Graphics Processing Units, John Wiley & Sons, Ltd, 173-190 (2016). 
 GPU-Accelerated Sparse Matrix-Matrix Multiplication for Linear Scaling Density Functional Theory.
 http://dx.doi.org/10.1002/9781118670712.ch8


 Borstnik, U; VandeVondele, J; Weber, V; Hutter, J. 
 PARALLEL COMPUTING, 40 (5-6), 47-58 (2014). 
 Sparse matrix multiplication: The distributed block-compressed sparse
 row library.
 http://dx.doi.org/10.1016/j.parco.2014.03.012


 Hutter, J; Iannuzzi, M; Schiffmann, F; VandeVondele, J. 
 WILEY INTERDISCIPLINARY REVIEWS-COMPUTATIONAL MOLECULAR SCIENCE, 4 (1), 15-25 (2014). 
 CP2K: atomistic simulations of condensed matter systems.
 http://dx.doi.org/10.1002/wcms.1159


 Grimme, S; Ehrlich, S; Goerigk, L. 
 JOURNAL OF COMPUTATIONAL CHEMISTRY, 32, 1456 (2011). 
 Effect of the damping function in dispersion corrected density functional theory.
 http://dx.doi.org/10.1002/jcc.21759


 Grimme, S; Antony, J; Ehrlich, S; Krieg, H. 
 JOURNAL OF CHEMICAL PHYSICS, 132 (15), 154104 (2010). 
 A consistent and accurate ab initio parametrization of density
 functional dispersion correction (DFT-D) for the 94 elements H-Pu.
 http://dx.doi.org/10.1063/1.3382344


 VandeVondele, J; Hutter, J. 
 JOURNAL OF CHEMICAL PHYSICS, 127 (11), 114105 (2007). 
 Gaussian basis sets for accurate calculations on molecular systems in
 gas and condensed phases.
 http://dx.doi.org/10.1063/1.2770708


 Krack, M. 
 THEORETICAL CHEMISTRY ACCOUNTS, 114 (1-3), 145-152 (2005). 
 Pseudopotentials for H to Kr optimized for gradient-corrected
 exchange-correlation functionals.
 http://dx.doi.org/10.1007/s00214-005-0655-y


 VandeVondele, J; Krack, M; Mohamed, F; Parrinello, M; Chassaing, T;
 Hutter, J. COMPUTER PHYSICS COMMUNICATIONS, 167 (2), 103-128 (2005). 
 QUICKSTEP: Fast and accurate density functional calculations using a
 mixed Gaussian and plane waves approach.
 http://dx.doi.org/10.1016/j.cpc.2004.12.014


 Frigo, M; Johnson, SG. 
 PROCEEDINGS OF THE IEEE, 93 (2), 216-231 (2005). 
 The design and implementation of FFTW3.
 http://dx.doi.org/10.1109/JPROC.2004.840301


 Hartwigsen, C; Goedecker, S; Hutter, J. 
 PHYSICAL REVIEW B, 58 (7), 3641-3662 (1998). 
 Relativistic separable dual-space Gaussian pseudopotentials from H to Rn.
 http://dx.doi.org/10.1103/PhysRevB.58.3641


 Lippert, G; Hutter, J; Parrinello, M. 
 MOLECULAR PHYSICS, 92 (3), 477-487 (1997). 
 A hybrid Gaussian and plane wave density functional scheme.
 http://dx.doi.org/10.1080/002689797170220


 Goedecker, S; Teter, M; Hutter, J. 
 PHYSICAL REVIEW B, 54 (3), 1703-1710 (1996). 
 Separable dual-space Gaussian pseudopotentials.
 http://dx.doi.org/10.1103/PhysRevB.54.1703


 BECKE, AD. PHYSICAL REVIEW A, 38 (6), 3098-3100 (1988). 
 DENSITY-FUNCTIONAL EXCHANGE-ENERGY APPROXIMATION WITH CORRECT
 ASYMPTOTIC-BEHAVIOR.
 http://dx.doi.org/10.1103/PhysRevA.38.3098


 LEE, CT; YANG, WT; PARR, RG. 
 PHYSICAL REVIEW B, 37 (2), 785-789 (1988). 
 DEVELOPMENT OF THE COLLE-SALVETTI CORRELATION-ENERGY FORMULA INTO A
 FUNCTIONAL OF THE ELECTRON-DENSITY.
 http://dx.doi.org/10.1103/PhysRevB.37.785


 -------------------------------------------------------------------------------
 -                                                                             -
 -                                T I M I N G                                  -
 -                                                                             -
 -------------------------------------------------------------------------------
 SUBROUTINE                       CALLS  ASD         SELF TIME        TOTAL TIME
                                MAXIMUM       AVERAGE  MAXIMUM  AVERAGE  MAXIMUM
 CP2K                                 1  1.0     0.48     0.61 21654.48 21654.75
 qs_energies                          5  2.0     0.13     0.14 21650.33 21650.60
 scf_env_do_scf                       5  3.0     0.01     0.01 21640.12 21640.45
 scf_env_do_scf_inner_loop         3500  4.0     0.31     0.50 21640.02 21640.44
 qs_ks_update_qs_env               3500  5.0     0.05     0.06  8416.12  8416.49
 rebuild_ks_matrix                 3500  6.0     0.01     0.01  8412.82  8413.16
 qs_ks_build_kohn_sham_matrix      3500  7.0     0.56     0.61  8412.80  8413.14
 pw_transfer                      80533  9.0     4.84     5.39  5943.95  6048.30
 fft_wrap_pw1pw2                  73533 10.0     0.58     0.63  5867.17  5983.85
 qs_rho_update_rho                 3505  5.0     0.03     0.04  5871.62  5872.87
 calculate_rho_elec                7010  6.0  2000.29  2268.93  5871.58  5872.84
 gspace_mixing                     3489  5.0    31.13    32.62  5587.36  5587.43
 fft_wrap_pw1pw2_150              31503 10.2   486.54   620.26  5329.49  5466.76
 sum_up_and_integrate              3500  8.0    43.33    62.94  5025.83  5026.20
 integrate_v_rspace                7000  9.0  1975.42  2232.80  4982.49  4997.89
 fft3d_ps                         73533 12.0  2103.13  2292.02  4032.54  4231.78
 broyden_mixing                    3489  6.0  3241.43  3895.20  4083.82  4119.69
 density_rs2pw                     7010  7.0     0.29     0.32  3592.41  4017.29
 potential_pw2rs                   7000 10.0     1.51     1.67  2666.26  2681.94
 qs_vxc_create                     3500  8.0     0.07     0.08  2407.63  2463.70
 xc_vxc_pw_create                  3500  9.0   252.36   322.97  2407.56  2463.63
 rs_pw_transfer                   56045  9.5     0.57     0.60  1921.19  2353.23
 mp_alltoall_z22v                 73533 14.0  1368.35  1982.86  1368.35  1982.86
 qs_scf_new_mos                    3500  5.0     0.13     0.13  1760.37  1761.46
 eigensolver                       7000  6.0     0.56     0.70  1644.33  1644.73
 xc_rho_set_and_dset_create        3500 10.0   259.31   308.87  1521.61  1562.11
 cp_fm_syevd                       7000  7.0     0.05     0.05  1285.44  1285.81
 cp_fm_syevd_base                  7000  8.0  1285.22  1285.58  1285.22  1285.58
 mp_waitany                      588520 11.5   824.06  1274.45   824.06  1274.45
 x_to_yz                          38488 13.3   345.35   414.83  1064.55  1197.79
 pw_nn_compose_r                  42000 10.5   462.93   492.51   871.71  1156.19
 yz_to_x                          35045 12.6   214.71   239.80   863.87  1154.52
 rs_pw_transfer_RS2PW_150          7015  9.0   239.41   269.86   692.00  1112.55
 mp_sum_dm                         6968  7.0   546.48  1010.51   546.48  1010.51
 mp_sum_d                         52857  7.7   438.79   881.57   438.79   881.57
 rs_pw_transfer_PW2RS_150          7000 12.0   412.57   510.02   779.36   826.67
 mp_alltoall_d11v                 98045  9.3   414.16   823.60   414.16   823.60
 rs_distribute_matrix             14010  8.5    11.12    15.13   397.73   805.31
 xc_functional_eval                7000 11.0     0.06     0.07   734.43   761.08
 pw_gather_p                      35045 11.6   697.85   751.85   697.85   751.85
 mp_sendrecv_dm2                  84000 11.5   408.78   723.96   408.78   723.96
 pw_scatter_p                     38488 12.3   626.83   651.35   626.83   651.35
 lyp_lsd_eval                      3500 12.0   535.56   554.60   535.56   554.60
 fft_wrap_pw1pw2_50               14010 11.5    18.37    22.56   449.48   522.98
 -------------------------------------------------------------------------------

 The number of warnings for this run is : 7
 
 -------------------------------------------------------------------------------
  **** **** ******  **  PROGRAM ENDED AT                 2024-07-26 21:22:17.540
 ***** ** ***  *** **   PROGRAM RAN ON                                sebnode133
 **    ****   ******    PROGRAM RAN BY                                    luehrs
 ***** **    ** ** **   PROGRAM PROCESS ID                                271567
  **** **  *******  **  PROGRAM STOPPED IN /home/luehrs/PhD/Sodium_batteries/Sod
                                           ium-graphene-edge/Zig_zag_3/No_hydrog
                                           en
